PSF EXT CMAP XPLOR AUTOG

         3 !NTITLE
* GENERATED BY CHARMM-GUI (HTTP://WWW.CHARMM-GUI.ORG) V3.7 ON OCT, 22. 2024. JOB
* GET A DIFFERENT CONFORMATION FOR LIPIDS PENETRATING PROTEIN / CHOL            
*  DATE:    10/22/24     11:18:18      CREATED BY USER: apache                  

     22570 !NATOM
         1 MEMB     1        SAPS     N        NH3L    -0.300000       14.0070           0
         2 MEMB     1        SAPS     HN1      HCL      0.330000       1.00800           0
         3 MEMB     1        SAPS     HN2      HCL      0.330000       1.00800           0
         4 MEMB     1        SAPS     HN3      HCL      0.330000       1.00800           0
         5 MEMB     1        SAPS     C12      CTL1     0.210000       12.0110           0
         6 MEMB     1        SAPS     H12A     HBL      0.100000       1.00800           0
         7 MEMB     1        SAPS     C13      CCL      0.340000       12.0110           0
         8 MEMB     1        SAPS     O13A     OCL     -0.670000       15.9994           0
         9 MEMB     1        SAPS     O13B     OCL     -0.670000       15.9994           0
        10 MEMB     1        SAPS     C11      CTL2    -0.800000E-01   12.0110           0
        11 MEMB     1        SAPS     H11A     HAL2     0.900000E-01   1.00800           0
        12 MEMB     1        SAPS     H11B     HAL2     0.900000E-01   1.00800           0
        13 MEMB     1        SAPS     P        PL        1.50000       30.9740           0
        14 MEMB     1        SAPS     O13      O2L     -0.780000       15.9994           0
        15 MEMB     1        SAPS     O14      O2L     -0.780000       15.9994           0
        16 MEMB     1        SAPS     O12      OSLP    -0.570000       15.9994           0
        17 MEMB     1        SAPS     O11      OSLP    -0.570000       15.9994           0
        18 MEMB     1        SAPS     C1       CTL2    -0.800000E-01   12.0110           0
        19 MEMB     1        SAPS     HA       HAL2     0.900000E-01   1.00800           0
        20 MEMB     1        SAPS     HB       HAL2     0.900000E-01   1.00800           0
        21 MEMB     1        SAPS     C2       CTL1     0.170000       12.0110           0
        22 MEMB     1        SAPS     HS       HAL1     0.900000E-01   1.00800           0
        23 MEMB     1        SAPS     O21      OSL     -0.490000       15.9994           0
        24 MEMB     1        SAPS     C21      CL       0.900000       12.0110           0
        25 MEMB     1        SAPS     O22      OBL     -0.630000       15.9994           0
        26 MEMB     1        SAPS     C22      CTL2    -0.220000       12.0110           0
        27 MEMB     1        SAPS     H2R      HAL2     0.900000E-01   1.00800           0
        28 MEMB     1        SAPS     H2S      HAL2     0.900000E-01   1.00800           0
        29 MEMB     1        SAPS     C3       CTL2     0.800000E-01   12.0110           0
        30 MEMB     1        SAPS     HX       HAL2     0.900000E-01   1.00800           0
        31 MEMB     1        SAPS     HY       HAL2     0.900000E-01   1.00800           0
        32 MEMB     1        SAPS     O31      OSL     -0.490000       15.9994           0
        33 MEMB     1        SAPS     C31      CL       0.900000       12.0110           0
        34 MEMB     1        SAPS     O32      OBL     -0.630000       15.9994           0
        35 MEMB     1        SAPS     C32      CTL2    -0.220000       12.0110           0
        36 MEMB     1        SAPS     H2X      HAL2     0.900000E-01   1.00800           0
        37 MEMB     1        SAPS     H2Y      HAL2     0.900000E-01   1.00800           0
        38 MEMB     1        SAPS     C23      CTL2    -0.180000       12.0110           0
        39 MEMB     1        SAPS     H3R      HAL2     0.900000E-01   1.00800           0
        40 MEMB     1        SAPS     H3S      HAL2     0.900000E-01   1.00800           0
        41 MEMB     1        SAPS     C24      CTL2    -0.180000       12.0110           0
        42 MEMB     1        SAPS     H4R      HAL2     0.900000E-01   1.00800           0
        43 MEMB     1        SAPS     H4S      HAL2     0.900000E-01   1.00800           0
        44 MEMB     1        SAPS     C25      CEL1    -0.150000       12.0110           0
        45 MEMB     1        SAPS     H5R      HEL1     0.150000       1.00800           0
        46 MEMB     1        SAPS     C26      CEL1    -0.150000       12.0110           0
        47 MEMB     1        SAPS     H6R      HEL1     0.150000       1.00800           0
        48 MEMB     1        SAPS     C27      CTL2    -0.180000       12.0110           0
        49 MEMB     1        SAPS     H7R      HAL2     0.900000E-01   1.00800           0
        50 MEMB     1        SAPS     H7S      HAL2     0.900000E-01   1.00800           0
        51 MEMB     1        SAPS     C28      CEL1    -0.150000       12.0110           0
        52 MEMB     1        SAPS     H8R      HEL1     0.150000       1.00800           0
        53 MEMB     1        SAPS     C29      CEL1    -0.150000       12.0110           0
        54 MEMB     1        SAPS     H9R      HEL1     0.150000       1.00800           0
        55 MEMB     1        SAPS     C210     CTL2    -0.180000       12.0110           0
        56 MEMB     1        SAPS     H10R     HAL2     0.900000E-01   1.00800           0
        57 MEMB     1        SAPS     H10S     HAL2     0.900000E-01   1.00800           0
        58 MEMB     1        SAPS     C211     CEL1    -0.150000       12.0110           0
        59 MEMB     1        SAPS     H11R     HEL1     0.150000       1.00800           0
        60 MEMB     1        SAPS     C212     CEL1    -0.150000       12.0110           0
        61 MEMB     1        SAPS     H12R     HEL1     0.150000       1.00800           0
        62 MEMB     1        SAPS     C213     CTL2    -0.180000       12.0110           0
        63 MEMB     1        SAPS     H13R     HAL2     0.900000E-01   1.00800           0
        64 MEMB     1        SAPS     H13S     HAL2     0.900000E-01   1.00800           0
        65 MEMB     1        SAPS     C214     CEL1    -0.150000       12.0110           0
        66 MEMB     1        SAPS     H14R     HEL1     0.150000       1.00800           0
        67 MEMB     1        SAPS     C215     CEL1    -0.150000       12.0110           0
        68 MEMB     1        SAPS     H15R     HEL1     0.150000       1.00800           0
        69 MEMB     1        SAPS     C216     CTL2    -0.180000       12.0110           0
        70 MEMB     1        SAPS     H16R     HAL2     0.900000E-01   1.00800           0
        71 MEMB     1        SAPS     H16S     HAL2     0.900000E-01   1.00800           0
        72 MEMB     1        SAPS     C217     CTL2    -0.180000       12.0110           0
        73 MEMB     1        SAPS     H17R     HAL2     0.900000E-01   1.00800           0
        74 MEMB     1        SAPS     H17S     HAL2     0.900000E-01   1.00800           0
        75 MEMB     1        SAPS     C218     CTL2    -0.180000       12.0110           0
        76 MEMB     1        SAPS     H18R     HAL2     0.900000E-01   1.00800           0
        77 MEMB     1        SAPS     H18S     HAL2     0.900000E-01   1.00800           0
        78 MEMB     1        SAPS     C219     CTL2    -0.180000       12.0110           0
        79 MEMB     1        SAPS     H19R     HAL2     0.900000E-01   1.00800           0
        80 MEMB     1        SAPS     H19S     HAL2     0.900000E-01   1.00800           0
        81 MEMB     1        SAPS     C220     CTL3    -0.270000       12.0110           0
        82 MEMB     1        SAPS     H20R     HAL3     0.900000E-01   1.00800           0
        83 MEMB     1        SAPS     H20S     HAL3     0.900000E-01   1.00800           0
        84 MEMB     1        SAPS     H20T     HAL3     0.900000E-01   1.00800           0
        85 MEMB     1        SAPS     C33      CTL2    -0.180000       12.0110           0
        86 MEMB     1        SAPS     H3X      HAL2     0.900000E-01   1.00800           0
        87 MEMB     1        SAPS     H3Y      HAL2     0.900000E-01   1.00800           0
        88 MEMB     1        SAPS     C34      CTL2    -0.180000       12.0110           0
        89 MEMB     1        SAPS     H4X      HAL2     0.900000E-01   1.00800           0
        90 MEMB     1        SAPS     H4Y      HAL2     0.900000E-01   1.00800           0
        91 MEMB     1        SAPS     C35      CTL2    -0.180000       12.0110           0
        92 MEMB     1        SAPS     H5X      HAL2     0.900000E-01   1.00800           0
        93 MEMB     1        SAPS     H5Y      HAL2     0.900000E-01   1.00800           0
        94 MEMB     1        SAPS     C36      CTL2    -0.180000       12.0110           0
        95 MEMB     1        SAPS     H6X      HAL2     0.900000E-01   1.00800           0
        96 MEMB     1        SAPS     H6Y      HAL2     0.900000E-01   1.00800           0
        97 MEMB     1        SAPS     C37      CTL2    -0.180000       12.0110           0
        98 MEMB     1        SAPS     H7X      HAL2     0.900000E-01   1.00800           0
        99 MEMB     1        SAPS     H7Y      HAL2     0.900000E-01   1.00800           0
       100 MEMB     1        SAPS     C38      CTL2    -0.180000       12.0110           0
       101 MEMB     1        SAPS     H8X      HAL2     0.900000E-01   1.00800           0
       102 MEMB     1        SAPS     H8Y      HAL2     0.900000E-01   1.00800           0
       103 MEMB     1        SAPS     C39      CTL2    -0.180000       12.0110           0
       104 MEMB     1        SAPS     H9X      HAL2     0.900000E-01   1.00800           0
       105 MEMB     1        SAPS     H9Y      HAL2     0.900000E-01   1.00800           0
       106 MEMB     1        SAPS     C310     CTL2    -0.180000       12.0110           0
       107 MEMB     1        SAPS     H10X     HAL2     0.900000E-01   1.00800           0
       108 MEMB     1        SAPS     H10Y     HAL2     0.900000E-01   1.00800           0
       109 MEMB     1        SAPS     C311     CTL2    -0.180000       12.0110           0
       110 MEMB     1        SAPS     H11X     HAL2     0.900000E-01   1.00800           0
       111 MEMB     1        SAPS     H11Y     HAL2     0.900000E-01   1.00800           0
       112 MEMB     1        SAPS     C312     CTL2    -0.180000       12.0110           0
       113 MEMB     1        SAPS     H12X     HAL2     0.900000E-01   1.00800           0
       114 MEMB     1        SAPS     H12Y     HAL2     0.900000E-01   1.00800           0
       115 MEMB     1        SAPS     C313     CTL2    -0.180000       12.0110           0
       116 MEMB     1        SAPS     H13X     HAL2     0.900000E-01   1.00800           0
       117 MEMB     1        SAPS     H13Y     HAL2     0.900000E-01   1.00800           0
       118 MEMB     1        SAPS     C314     CTL2    -0.180000       12.0110           0
       119 MEMB     1        SAPS     H14X     HAL2     0.900000E-01   1.00800           0
       120 MEMB     1        SAPS     H14Y     HAL2     0.900000E-01   1.00800           0
       121 MEMB     1        SAPS     C315     CTL2    -0.180000       12.0110           0
       122 MEMB     1        SAPS     H15X     HAL2     0.900000E-01   1.00800           0
       123 MEMB     1        SAPS     H15Y     HAL2     0.900000E-01   1.00800           0
       124 MEMB     1        SAPS     C316     CTL2    -0.180000       12.0110           0
       125 MEMB     1        SAPS     H16X     HAL2     0.900000E-01   1.00800           0
       126 MEMB     1        SAPS     H16Y     HAL2     0.900000E-01   1.00800           0
       127 MEMB     1        SAPS     C317     CTL2    -0.180000       12.0110           0
       128 MEMB     1        SAPS     H17X     HAL2     0.900000E-01   1.00800           0
       129 MEMB     1        SAPS     H17Y     HAL2     0.900000E-01   1.00800           0
       130 MEMB     1        SAPS     C318     CTL3    -0.270000       12.0110           0
       131 MEMB     1        SAPS     H18X     HAL3     0.900000E-01   1.00800           0
       132 MEMB     1        SAPS     H18Y     HAL3     0.900000E-01   1.00800           0
       133 MEMB     1        SAPS     H18Z     HAL3     0.900000E-01   1.00800           0
       134 MEMB     2        CHL1     C3       CRL1     0.140000       12.0110           0
       135 MEMB     2        CHL1     H3       HGA1     0.900000E-01   1.00800           0
       136 MEMB     2        CHL1     O3       OHL     -0.660000       15.9994           0
       137 MEMB     2        CHL1     H3'      HOL      0.430000       1.00800           0
       138 MEMB     2        CHL1     C4       CRL2    -0.180000       12.0110           0
       139 MEMB     2        CHL1     H4A      HGA2     0.900000E-01   1.00800           0
       140 MEMB     2        CHL1     H4B      HGA2     0.900000E-01   1.00800           0
       141 MEMB     2        CHL1     C5       CEL1      0.00000       12.0110           0
       142 MEMB     2        CHL1     C6       CEL1    -0.150000       12.0110           0
       143 MEMB     2        CHL1     H6       HEL1     0.150000       1.00800           0
       144 MEMB     2        CHL1     C7       CRL2    -0.180000       12.0110           0
       145 MEMB     2        CHL1     H7A      HGA2     0.900000E-01   1.00800           0
       146 MEMB     2        CHL1     H7B      HGA2     0.900000E-01   1.00800           0
       147 MEMB     2        CHL1     C8       CRL1    -0.900000E-01   12.0110           0
       148 MEMB     2        CHL1     H8       HGA1     0.900000E-01   1.00800           0
       149 MEMB     2        CHL1     C14      CRL1    -0.900000E-01   12.0110           0
       150 MEMB     2        CHL1     H14      HGA1     0.900000E-01   1.00800           0
       151 MEMB     2        CHL1     C15      CRL2    -0.180000       12.0110           0
       152 MEMB     2        CHL1     H15A     HGA2     0.900000E-01   1.00800           0
       153 MEMB     2        CHL1     H15B     HGA2     0.900000E-01   1.00800           0
       154 MEMB     2        CHL1     C16      CRL2    -0.180000       12.0110           0
       155 MEMB     2        CHL1     H16A     HGA2     0.900000E-01   1.00800           0
       156 MEMB     2        CHL1     H16B     HGA2     0.900000E-01   1.00800           0
       157 MEMB     2        CHL1     C17      CRL1    -0.900000E-01   12.0110           0
       158 MEMB     2        CHL1     H17      HGA1     0.900000E-01   1.00800           0
       159 MEMB     2        CHL1     C13      CRL1      0.00000       12.0110           0
       160 MEMB     2        CHL1     C18      CTL3    -0.270000       12.0110           0
       161 MEMB     2        CHL1     H18A     HAL3     0.900000E-01   1.00800           0
       162 MEMB     2        CHL1     H18B     HAL3     0.900000E-01   1.00800           0
       163 MEMB     2        CHL1     H18C     HAL3     0.900000E-01   1.00800           0
       164 MEMB     2        CHL1     C12      CRL2    -0.180000       12.0110           0
       165 MEMB     2        CHL1     H12A     HGA2     0.900000E-01   1.00800           0
       166 MEMB     2        CHL1     H12B     HGA2     0.900000E-01   1.00800           0
       167 MEMB     2        CHL1     C11      CRL2    -0.180000       12.0110           0
       168 MEMB     2        CHL1     H11A     HGA2     0.900000E-01   1.00800           0
       169 MEMB     2        CHL1     H11B     HGA2     0.900000E-01   1.00800           0
       170 MEMB     2        CHL1     C9       CRL1    -0.900000E-01   12.0110           0
       171 MEMB     2        CHL1     H9       HGA1     0.900000E-01   1.00800           0
       172 MEMB     2        CHL1     C10      CRL1      0.00000       12.0110           0
       173 MEMB     2        CHL1     C19      CTL3    -0.270000       12.0110           0
       174 MEMB     2        CHL1     H19A     HAL3     0.900000E-01   1.00800           0
       175 MEMB     2        CHL1     H19B     HAL3     0.900000E-01   1.00800           0
       176 MEMB     2        CHL1     H19C     HAL3     0.900000E-01   1.00800           0
       177 MEMB     2        CHL1     C1       CRL2    -0.180000       12.0110           0
       178 MEMB     2        CHL1     H1A      HGA2     0.900000E-01   1.00800           0
       179 MEMB     2        CHL1     H1B      HGA2     0.900000E-01   1.00800           0
       180 MEMB     2        CHL1     C2       CRL2    -0.180000       12.0110           0
       181 MEMB     2        CHL1     H2A      HGA2     0.900000E-01   1.00800           0
       182 MEMB     2        CHL1     H2B      HGA2     0.900000E-01   1.00800           0
       183 MEMB     2        CHL1     C20      CTL1    -0.900000E-01   12.0110           0
       184 MEMB     2        CHL1     H20      HAL1     0.900000E-01   1.00800           0
       185 MEMB     2        CHL1     C21      CTL3    -0.270000       12.0110           0
       186 MEMB     2        CHL1     H21A     HAL3     0.900000E-01   1.00800           0
       187 MEMB     2        CHL1     H21B     HAL3     0.900000E-01   1.00800           0
       188 MEMB     2        CHL1     H21C     HAL3     0.900000E-01   1.00800           0
       189 MEMB     2        CHL1     C22      CTL2    -0.180000       12.0110           0
       190 MEMB     2        CHL1     H22A     HAL2     0.900000E-01   1.00800           0
       191 MEMB     2        CHL1     H22B     HAL2     0.900000E-01   1.00800           0
       192 MEMB     2        CHL1     C23      CTL2    -0.180000       12.0110           0
       193 MEMB     2        CHL1     H23A     HAL2     0.900000E-01   1.00800           0
       194 MEMB     2        CHL1     H23B     HAL2     0.900000E-01   1.00800           0
       195 MEMB     2        CHL1     C24      CTL2    -0.180000       12.0110           0
       196 MEMB     2        CHL1     H24A     HAL2     0.900000E-01   1.00800           0
       197 MEMB     2        CHL1     H24B     HAL2     0.900000E-01   1.00800           0
       198 MEMB     2        CHL1     C25      CTL1    -0.900000E-01   12.0110           0
       199 MEMB     2        CHL1     H25      HAL1     0.900000E-01   1.00800           0
       200 MEMB     2        CHL1     C26      CTL3    -0.270000       12.0110           0
       201 MEMB     2        CHL1     H26A     HAL3     0.900000E-01   1.00800           0
       202 MEMB     2        CHL1     H26B     HAL3     0.900000E-01   1.00800           0
       203 MEMB     2        CHL1     H26C     HAL3     0.900000E-01   1.00800           0
       204 MEMB     2        CHL1     C27      CTL3    -0.270000       12.0110           0
       205 MEMB     2        CHL1     H27A     HAL3     0.900000E-01   1.00800           0
       206 MEMB     2        CHL1     H27B     HAL3     0.900000E-01   1.00800           0
       207 MEMB     2        CHL1     H27C     HAL3     0.900000E-01   1.00800           0
       208 MEMB     3        SOPE     N        NH3L    -0.300000       14.0070           0
       209 MEMB     3        SOPE     HN1      HCL      0.330000       1.00800           0
       210 MEMB     3        SOPE     HN2      HCL      0.330000       1.00800           0
       211 MEMB     3        SOPE     HN3      HCL      0.330000       1.00800           0
       212 MEMB     3        SOPE     C12      CTL2     0.130000       12.0110           0
       213 MEMB     3        SOPE     H12A     HAL2     0.900000E-01   1.00800           0
       214 MEMB     3        SOPE     H12B     HAL2     0.900000E-01   1.00800           0
       215 MEMB     3        SOPE     C11      CTL2    -0.800000E-01   12.0110           0
       216 MEMB     3        SOPE     H11A     HAL2     0.900000E-01   1.00800           0
       217 MEMB     3        SOPE     H11B     HAL2     0.900000E-01   1.00800           0
       218 MEMB     3        SOPE     P        PL        1.50000       30.9740           0
       219 MEMB     3        SOPE     O13      O2L     -0.780000       15.9994           0
       220 MEMB     3        SOPE     O14      O2L     -0.780000       15.9994           0
       221 MEMB     3        SOPE     O12      OSLP    -0.570000       15.9994           0
       222 MEMB     3        SOPE     O11      OSLP    -0.570000       15.9994           0
       223 MEMB     3        SOPE     C1       CTL2    -0.800000E-01   12.0110           0
       224 MEMB     3        SOPE     HA       HAL2     0.900000E-01   1.00800           0
       225 MEMB     3        SOPE     HB       HAL2     0.900000E-01   1.00800           0
       226 MEMB     3        SOPE     C2       CTL1     0.170000       12.0110           0
       227 MEMB     3        SOPE     HS       HAL1     0.900000E-01   1.00800           0
       228 MEMB     3        SOPE     O21      OSL     -0.490000       15.9994           0
       229 MEMB     3        SOPE     C21      CL       0.900000       12.0110           0
       230 MEMB     3        SOPE     O22      OBL     -0.630000       15.9994           0
       231 MEMB     3        SOPE     C22      CTL2    -0.220000       12.0110           0
       232 MEMB     3        SOPE     H2R      HAL2     0.900000E-01   1.00800           0
       233 MEMB     3        SOPE     H2S      HAL2     0.900000E-01   1.00800           0
       234 MEMB     3        SOPE     C3       CTL2     0.800000E-01   12.0110           0
       235 MEMB     3        SOPE     HX       HAL2     0.900000E-01   1.00800           0
       236 MEMB     3        SOPE     HY       HAL2     0.900000E-01   1.00800           0
       237 MEMB     3        SOPE     O31      OSL     -0.490000       15.9994           0
       238 MEMB     3        SOPE     C31      CL       0.900000       12.0110           0
       239 MEMB     3        SOPE     O32      OBL     -0.630000       15.9994           0
       240 MEMB     3        SOPE     C32      CTL2    -0.220000       12.0110           0
       241 MEMB     3        SOPE     H2X      HAL2     0.900000E-01   1.00800           0
       242 MEMB     3        SOPE     H2Y      HAL2     0.900000E-01   1.00800           0
       243 MEMB     3        SOPE     C23      CTL2    -0.180000       12.0110           0
       244 MEMB     3        SOPE     H3R      HAL2     0.900000E-01   1.00800           0
       245 MEMB     3        SOPE     H3S      HAL2     0.900000E-01   1.00800           0
       246 MEMB     3        SOPE     C24      CTL2    -0.180000       12.0110           0
       247 MEMB     3        SOPE     H4R      HAL2     0.900000E-01   1.00800           0
       248 MEMB     3        SOPE     H4S      HAL2     0.900000E-01   1.00800           0
       249 MEMB     3        SOPE     C25      CTL2    -0.180000       12.0110           0
       250 MEMB     3        SOPE     H5R      HAL2     0.900000E-01   1.00800           0
       251 MEMB     3        SOPE     H5S      HAL2     0.900000E-01   1.00800           0
       252 MEMB     3        SOPE     C26      CTL2    -0.180000       12.0110           0
       253 MEMB     3        SOPE     H6R      HAL2     0.900000E-01   1.00800           0
       254 MEMB     3        SOPE     H6S      HAL2     0.900000E-01   1.00800           0
       255 MEMB     3        SOPE     C27      CTL2    -0.180000       12.0110           0
       256 MEMB     3        SOPE     H7R      HAL2     0.900000E-01   1.00800           0
       257 MEMB     3        SOPE     H7S      HAL2     0.900000E-01   1.00800           0
       258 MEMB     3        SOPE     C28      CTL2    -0.180000       12.0110           0
       259 MEMB     3        SOPE     H8R      HAL2     0.900000E-01   1.00800           0
       260 MEMB     3        SOPE     H8S      HAL2     0.900000E-01   1.00800           0
       261 MEMB     3        SOPE     C29      CEL1    -0.150000       12.0110           0
       262 MEMB     3        SOPE     H91      HEL1     0.150000       1.00800           0
       263 MEMB     3        SOPE     C210     CEL1    -0.150000       12.0110           0
       264 MEMB     3        SOPE     H101     HEL1     0.150000       1.00800           0
       265 MEMB     3        SOPE     C211     CTL2    -0.180000       12.0110           0
       266 MEMB     3        SOPE     H11R     HAL2     0.900000E-01   1.00800           0
       267 MEMB     3        SOPE     H11S     HAL2     0.900000E-01   1.00800           0
       268 MEMB     3        SOPE     C212     CTL2    -0.180000       12.0110           0
       269 MEMB     3        SOPE     H12R     HAL2     0.900000E-01   1.00800           0
       270 MEMB     3        SOPE     H12S     HAL2     0.900000E-01   1.00800           0
       271 MEMB     3        SOPE     C213     CTL2    -0.180000       12.0110           0
       272 MEMB     3        SOPE     H13R     HAL2     0.900000E-01   1.00800           0
       273 MEMB     3        SOPE     H13S     HAL2     0.900000E-01   1.00800           0
       274 MEMB     3        SOPE     C214     CTL2    -0.180000       12.0110           0
       275 MEMB     3        SOPE     H14R     HAL2     0.900000E-01   1.00800           0
       276 MEMB     3        SOPE     H14S     HAL2     0.900000E-01   1.00800           0
       277 MEMB     3        SOPE     C215     CTL2    -0.180000       12.0110           0
       278 MEMB     3        SOPE     H15R     HAL2     0.900000E-01   1.00800           0
       279 MEMB     3        SOPE     H15S     HAL2     0.900000E-01   1.00800           0
       280 MEMB     3        SOPE     C216     CTL2    -0.180000       12.0110           0
       281 MEMB     3        SOPE     H16R     HAL2     0.900000E-01   1.00800           0
       282 MEMB     3        SOPE     H16S     HAL2     0.900000E-01   1.00800           0
       283 MEMB     3        SOPE     C217     CTL2    -0.180000       12.0110           0
       284 MEMB     3        SOPE     H17R     HAL2     0.900000E-01   1.00800           0
       285 MEMB     3        SOPE     H17S     HAL2     0.900000E-01   1.00800           0
       286 MEMB     3        SOPE     C218     CTL3    -0.270000       12.0110           0
       287 MEMB     3        SOPE     H18R     HAL3     0.900000E-01   1.00800           0
       288 MEMB     3        SOPE     H18S     HAL3     0.900000E-01   1.00800           0
       289 MEMB     3        SOPE     H18T     HAL3     0.900000E-01   1.00800           0
       290 MEMB     3        SOPE     C33      CTL2    -0.180000       12.0110           0
       291 MEMB     3        SOPE     H3X      HAL2     0.900000E-01   1.00800           0
       292 MEMB     3        SOPE     H3Y      HAL2     0.900000E-01   1.00800           0
       293 MEMB     3        SOPE     C34      CTL2    -0.180000       12.0110           0
       294 MEMB     3        SOPE     H4X      HAL2     0.900000E-01   1.00800           0
       295 MEMB     3        SOPE     H4Y      HAL2     0.900000E-01   1.00800           0
       296 MEMB     3        SOPE     C35      CTL2    -0.180000       12.0110           0
       297 MEMB     3        SOPE     H5X      HAL2     0.900000E-01   1.00800           0
       298 MEMB     3        SOPE     H5Y      HAL2     0.900000E-01   1.00800           0
       299 MEMB     3        SOPE     C36      CTL2    -0.180000       12.0110           0
       300 MEMB     3        SOPE     H6X      HAL2     0.900000E-01   1.00800           0
       301 MEMB     3        SOPE     H6Y      HAL2     0.900000E-01   1.00800           0
       302 MEMB     3        SOPE     C37      CTL2    -0.180000       12.0110           0
       303 MEMB     3        SOPE     H7X      HAL2     0.900000E-01   1.00800           0
       304 MEMB     3        SOPE     H7Y      HAL2     0.900000E-01   1.00800           0
       305 MEMB     3        SOPE     C38      CTL2    -0.180000       12.0110           0
       306 MEMB     3        SOPE     H8X      HAL2     0.900000E-01   1.00800           0
       307 MEMB     3        SOPE     H8Y      HAL2     0.900000E-01   1.00800           0
       308 MEMB     3        SOPE     C39      CTL2    -0.180000       12.0110           0
       309 MEMB     3        SOPE     H9X      HAL2     0.900000E-01   1.00800           0
       310 MEMB     3        SOPE     H9Y      HAL2     0.900000E-01   1.00800           0
       311 MEMB     3        SOPE     C310     CTL2    -0.180000       12.0110           0
       312 MEMB     3        SOPE     H10X     HAL2     0.900000E-01   1.00800           0
       313 MEMB     3        SOPE     H10Y     HAL2     0.900000E-01   1.00800           0
       314 MEMB     3        SOPE     C311     CTL2    -0.180000       12.0110           0
       315 MEMB     3        SOPE     H11X     HAL2     0.900000E-01   1.00800           0
       316 MEMB     3        SOPE     H11Y     HAL2     0.900000E-01   1.00800           0
       317 MEMB     3        SOPE     C312     CTL2    -0.180000       12.0110           0
       318 MEMB     3        SOPE     H12X     HAL2     0.900000E-01   1.00800           0
       319 MEMB     3        SOPE     H12Y     HAL2     0.900000E-01   1.00800           0
       320 MEMB     3        SOPE     C313     CTL2    -0.180000       12.0110           0
       321 MEMB     3        SOPE     H13X     HAL2     0.900000E-01   1.00800           0
       322 MEMB     3        SOPE     H13Y     HAL2     0.900000E-01   1.00800           0
       323 MEMB     3        SOPE     C314     CTL2    -0.180000       12.0110           0
       324 MEMB     3        SOPE     H14X     HAL2     0.900000E-01   1.00800           0
       325 MEMB     3        SOPE     H14Y     HAL2     0.900000E-01   1.00800           0
       326 MEMB     3        SOPE     C315     CTL2    -0.180000       12.0110           0
       327 MEMB     3        SOPE     H15X     HAL2     0.900000E-01   1.00800           0
       328 MEMB     3        SOPE     H15Y     HAL2     0.900000E-01   1.00800           0
       329 MEMB     3        SOPE     C316     CTL2    -0.180000       12.0110           0
       330 MEMB     3        SOPE     H16X     HAL2     0.900000E-01   1.00800           0
       331 MEMB     3        SOPE     H16Y     HAL2     0.900000E-01   1.00800           0
       332 MEMB     3        SOPE     C317     CTL2    -0.180000       12.0110           0
       333 MEMB     3        SOPE     H17X     HAL2     0.900000E-01   1.00800           0
       334 MEMB     3        SOPE     H17Y     HAL2     0.900000E-01   1.00800           0
       335 MEMB     3        SOPE     C318     CTL3    -0.270000       12.0110           0
       336 MEMB     3        SOPE     H18X     HAL3     0.900000E-01   1.00800           0
       337 MEMB     3        SOPE     H18Y     HAL3     0.900000E-01   1.00800           0
       338 MEMB     3        SOPE     H18Z     HAL3     0.900000E-01   1.00800           0
       339 MEMB     4        CHL1     C3       CRL1     0.140000       12.0110           0
       340 MEMB     4        CHL1     H3       HGA1     0.900000E-01   1.00800           0
       341 MEMB     4        CHL1     O3       OHL     -0.660000       15.9994           0
       342 MEMB     4        CHL1     H3'      HOL      0.430000       1.00800           0
       343 MEMB     4        CHL1     C4       CRL2    -0.180000       12.0110           0
       344 MEMB     4        CHL1     H4A      HGA2     0.900000E-01   1.00800           0
       345 MEMB     4        CHL1     H4B      HGA2     0.900000E-01   1.00800           0
       346 MEMB     4        CHL1     C5       CEL1      0.00000       12.0110           0
       347 MEMB     4        CHL1     C6       CEL1    -0.150000       12.0110           0
       348 MEMB     4        CHL1     H6       HEL1     0.150000       1.00800           0
       349 MEMB     4        CHL1     C7       CRL2    -0.180000       12.0110           0
       350 MEMB     4        CHL1     H7A      HGA2     0.900000E-01   1.00800           0
       351 MEMB     4        CHL1     H7B      HGA2     0.900000E-01   1.00800           0
       352 MEMB     4        CHL1     C8       CRL1    -0.900000E-01   12.0110           0
       353 MEMB     4        CHL1     H8       HGA1     0.900000E-01   1.00800           0
       354 MEMB     4        CHL1     C14      CRL1    -0.900000E-01   12.0110           0
       355 MEMB     4        CHL1     H14      HGA1     0.900000E-01   1.00800           0
       356 MEMB     4        CHL1     C15      CRL2    -0.180000       12.0110           0
       357 MEMB     4        CHL1     H15A     HGA2     0.900000E-01   1.00800           0
       358 MEMB     4        CHL1     H15B     HGA2     0.900000E-01   1.00800           0
       359 MEMB     4        CHL1     C16      CRL2    -0.180000       12.0110           0
       360 MEMB     4        CHL1     H16A     HGA2     0.900000E-01   1.00800           0
       361 MEMB     4        CHL1     H16B     HGA2     0.900000E-01   1.00800           0
       362 MEMB     4        CHL1     C17      CRL1    -0.900000E-01   12.0110           0
       363 MEMB     4        CHL1     H17      HGA1     0.900000E-01   1.00800           0
       364 MEMB     4        CHL1     C13      CRL1      0.00000       12.0110           0
       365 MEMB     4        CHL1     C18      CTL3    -0.270000       12.0110           0
       366 MEMB     4        CHL1     H18A     HAL3     0.900000E-01   1.00800           0
       367 MEMB     4        CHL1     H18B     HAL3     0.900000E-01   1.00800           0
       368 MEMB     4        CHL1     H18C     HAL3     0.900000E-01   1.00800           0
       369 MEMB     4        CHL1     C12      CRL2    -0.180000       12.0110           0
       370 MEMB     4        CHL1     H12A     HGA2     0.900000E-01   1.00800           0
       371 MEMB     4        CHL1     H12B     HGA2     0.900000E-01   1.00800           0
       372 MEMB     4        CHL1     C11      CRL2    -0.180000       12.0110           0
       373 MEMB     4        CHL1     H11A     HGA2     0.900000E-01   1.00800           0
       374 MEMB     4        CHL1     H11B     HGA2     0.900000E-01   1.00800           0
       375 MEMB     4        CHL1     C9       CRL1    -0.900000E-01   12.0110           0
       376 MEMB     4        CHL1     H9       HGA1     0.900000E-01   1.00800           0
       377 MEMB     4        CHL1     C10      CRL1      0.00000       12.0110           0
       378 MEMB     4        CHL1     C19      CTL3    -0.270000       12.0110           0
       379 MEMB     4        CHL1     H19A     HAL3     0.900000E-01   1.00800           0
       380 MEMB     4        CHL1     H19B     HAL3     0.900000E-01   1.00800           0
       381 MEMB     4        CHL1     H19C     HAL3     0.900000E-01   1.00800           0
       382 MEMB     4        CHL1     C1       CRL2    -0.180000       12.0110           0
       383 MEMB     4        CHL1     H1A      HGA2     0.900000E-01   1.00800           0
       384 MEMB     4        CHL1     H1B      HGA2     0.900000E-01   1.00800           0
       385 MEMB     4        CHL1     C2       CRL2    -0.180000       12.0110           0
       386 MEMB     4        CHL1     H2A      HGA2     0.900000E-01   1.00800           0
       387 MEMB     4        CHL1     H2B      HGA2     0.900000E-01   1.00800           0
       388 MEMB     4        CHL1     C20      CTL1    -0.900000E-01   12.0110           0
       389 MEMB     4        CHL1     H20      HAL1     0.900000E-01   1.00800           0
       390 MEMB     4        CHL1     C21      CTL3    -0.270000       12.0110           0
       391 MEMB     4        CHL1     H21A     HAL3     0.900000E-01   1.00800           0
       392 MEMB     4        CHL1     H21B     HAL3     0.900000E-01   1.00800           0
       393 MEMB     4        CHL1     H21C     HAL3     0.900000E-01   1.00800           0
       394 MEMB     4        CHL1     C22      CTL2    -0.180000       12.0110           0
       395 MEMB     4        CHL1     H22A     HAL2     0.900000E-01   1.00800           0
       396 MEMB     4        CHL1     H22B     HAL2     0.900000E-01   1.00800           0
       397 MEMB     4        CHL1     C23      CTL2    -0.180000       12.0110           0
       398 MEMB     4        CHL1     H23A     HAL2     0.900000E-01   1.00800           0
       399 MEMB     4        CHL1     H23B     HAL2     0.900000E-01   1.00800           0
       400 MEMB     4        CHL1     C24      CTL2    -0.180000       12.0110           0
       401 MEMB     4        CHL1     H24A     HAL2     0.900000E-01   1.00800           0
       402 MEMB     4        CHL1     H24B     HAL2     0.900000E-01   1.00800           0
       403 MEMB     4        CHL1     C25      CTL1    -0.900000E-01   12.0110           0
       404 MEMB     4        CHL1     H25      HAL1     0.900000E-01   1.00800           0
       405 MEMB     4        CHL1     C26      CTL3    -0.270000       12.0110           0
       406 MEMB     4        CHL1     H26A     HAL3     0.900000E-01   1.00800           0
       407 MEMB     4        CHL1     H26B     HAL3     0.900000E-01   1.00800           0
       408 MEMB     4        CHL1     H26C     HAL3     0.900000E-01   1.00800           0
       409 MEMB     4        CHL1     C27      CTL3    -0.270000       12.0110           0
       410 MEMB     4        CHL1     H27A     HAL3     0.900000E-01   1.00800           0
       411 MEMB     4        CHL1     H27B     HAL3     0.900000E-01   1.00800           0
       412 MEMB     4        CHL1     H27C     HAL3     0.900000E-01   1.00800           0
       413 MEMB     5        SAPC     N        NTL     -0.600000       14.0070           0
       414 MEMB     5        SAPC     C12      CTL2    -0.100000       12.0110           0
       415 MEMB     5        SAPC     H12A     HL       0.250000       1.00800           0
       416 MEMB     5        SAPC     H12B     HL       0.250000       1.00800           0
       417 MEMB     5        SAPC     C13      CTL5    -0.350000       12.0110           0
       418 MEMB     5        SAPC     H13A     HL       0.250000       1.00800           0
       419 MEMB     5        SAPC     H13B     HL       0.250000       1.00800           0
       420 MEMB     5        SAPC     H13C     HL       0.250000       1.00800           0
       421 MEMB     5        SAPC     C14      CTL5    -0.350000       12.0110           0
       422 MEMB     5        SAPC     H14A     HL       0.250000       1.00800           0
       423 MEMB     5        SAPC     H14B     HL       0.250000       1.00800           0
       424 MEMB     5        SAPC     H14C     HL       0.250000       1.00800           0
       425 MEMB     5        SAPC     C15      CTL5    -0.350000       12.0110           0
       426 MEMB     5        SAPC     H15A     HL       0.250000       1.00800           0
       427 MEMB     5        SAPC     H15B     HL       0.250000       1.00800           0
       428 MEMB     5        SAPC     H15C     HL       0.250000       1.00800           0
       429 MEMB     5        SAPC     C11      CTL2    -0.800000E-01   12.0110           0
       430 MEMB     5        SAPC     H11A     HAL2     0.900000E-01   1.00800           0
       431 MEMB     5        SAPC     H11B     HAL2     0.900000E-01   1.00800           0
       432 MEMB     5        SAPC     P        PL        1.50000       30.9740           0
       433 MEMB     5        SAPC     O13      O2L     -0.780000       15.9994           0
       434 MEMB     5        SAPC     O14      O2L     -0.780000       15.9994           0
       435 MEMB     5        SAPC     O12      OSLP    -0.570000       15.9994           0
       436 MEMB     5        SAPC     O11      OSLP    -0.570000       15.9994           0
       437 MEMB     5        SAPC     C1       CTL2    -0.800000E-01   12.0110           0
       438 MEMB     5        SAPC     HA       HAL2     0.900000E-01   1.00800           0
       439 MEMB     5        SAPC     HB       HAL2     0.900000E-01   1.00800           0
       440 MEMB     5        SAPC     C2       CTL1     0.170000       12.0110           0
       441 MEMB     5        SAPC     HS       HAL1     0.900000E-01   1.00800           0
       442 MEMB     5        SAPC     O21      OSL     -0.490000       15.9994           0
       443 MEMB     5        SAPC     C21      CL       0.900000       12.0110           0
       444 MEMB     5        SAPC     O22      OBL     -0.630000       15.9994           0
       445 MEMB     5        SAPC     C22      CTL2    -0.220000       12.0110           0
       446 MEMB     5        SAPC     H2R      HAL2     0.900000E-01   1.00800           0
       447 MEMB     5        SAPC     H2S      HAL2     0.900000E-01   1.00800           0
       448 MEMB     5        SAPC     C3       CTL2     0.800000E-01   12.0110           0
       449 MEMB     5        SAPC     HX       HAL2     0.900000E-01   1.00800           0
       450 MEMB     5        SAPC     HY       HAL2     0.900000E-01   1.00800           0
       451 MEMB     5        SAPC     O31      OSL     -0.490000       15.9994           0
       452 MEMB     5        SAPC     C31      CL       0.900000       12.0110           0
       453 MEMB     5        SAPC     O32      OBL     -0.630000       15.9994           0
       454 MEMB     5        SAPC     C32      CTL2    -0.220000       12.0110           0
       455 MEMB     5        SAPC     H2X      HAL2     0.900000E-01   1.00800           0
       456 MEMB     5        SAPC     H2Y      HAL2     0.900000E-01   1.00800           0
       457 MEMB     5        SAPC     C23      CTL2    -0.180000       12.0110           0
       458 MEMB     5        SAPC     H3R      HAL2     0.900000E-01   1.00800           0
       459 MEMB     5        SAPC     H3S      HAL2     0.900000E-01   1.00800           0
       460 MEMB     5        SAPC     C24      CTL2    -0.180000       12.0110           0
       461 MEMB     5        SAPC     H4R      HAL2     0.900000E-01   1.00800           0
       462 MEMB     5        SAPC     H4S      HAL2     0.900000E-01   1.00800           0
       463 MEMB     5        SAPC     C25      CEL1    -0.150000       12.0110           0
       464 MEMB     5        SAPC     H5R      HEL1     0.150000       1.00800           0
       465 MEMB     5        SAPC     C26      CEL1    -0.150000       12.0110           0
       466 MEMB     5        SAPC     H6R      HEL1     0.150000       1.00800           0
       467 MEMB     5        SAPC     C27      CTL2    -0.180000       12.0110           0
       468 MEMB     5        SAPC     H7R      HAL2     0.900000E-01   1.00800           0
       469 MEMB     5        SAPC     H7S      HAL2     0.900000E-01   1.00800           0
       470 MEMB     5        SAPC     C28      CEL1    -0.150000       12.0110           0
       471 MEMB     5        SAPC     H8R      HEL1     0.150000       1.00800           0
       472 MEMB     5        SAPC     C29      CEL1    -0.150000       12.0110           0
       473 MEMB     5        SAPC     H9R      HEL1     0.150000       1.00800           0
       474 MEMB     5        SAPC     C210     CTL2    -0.180000       12.0110           0
       475 MEMB     5        SAPC     H10R     HAL2     0.900000E-01   1.00800           0
       476 MEMB     5        SAPC     H10S     HAL2     0.900000E-01   1.00800           0
       477 MEMB     5        SAPC     C211     CEL1    -0.150000       12.0110           0
       478 MEMB     5        SAPC     H11R     HEL1     0.150000       1.00800           0
       479 MEMB     5        SAPC     C212     CEL1    -0.150000       12.0110           0
       480 MEMB     5        SAPC     H12R     HEL1     0.150000       1.00800           0
       481 MEMB     5        SAPC     C213     CTL2    -0.180000       12.0110           0
       482 MEMB     5        SAPC     H13R     HAL2     0.900000E-01   1.00800           0
       483 MEMB     5        SAPC     H13S     HAL2     0.900000E-01   1.00800           0
       484 MEMB     5        SAPC     C214     CEL1    -0.150000       12.0110           0
       485 MEMB     5        SAPC     H14R     HEL1     0.150000       1.00800           0
       486 MEMB     5        SAPC     C215     CEL1    -0.150000       12.0110           0
       487 MEMB     5        SAPC     H15R     HEL1     0.150000       1.00800           0
       488 MEMB     5        SAPC     C216     CTL2    -0.180000       12.0110           0
       489 MEMB     5        SAPC     H16R     HAL2     0.900000E-01   1.00800           0
       490 MEMB     5        SAPC     H16S     HAL2     0.900000E-01   1.00800           0
       491 MEMB     5        SAPC     C217     CTL2    -0.180000       12.0110           0
       492 MEMB     5        SAPC     H17R     HAL2     0.900000E-01   1.00800           0
       493 MEMB     5        SAPC     H17S     HAL2     0.900000E-01   1.00800           0
       494 MEMB     5        SAPC     C218     CTL2    -0.270000       12.0110           0
       495 MEMB     5        SAPC     H18R     HAL2     0.900000E-01   1.00800           0
       496 MEMB     5        SAPC     H18S     HAL2     0.900000E-01   1.00800           0
       497 MEMB     5        SAPC     C219     CTL2    -0.180000       12.0110           0
       498 MEMB     5        SAPC     H19R     HAL2     0.900000E-01   1.00800           0
       499 MEMB     5        SAPC     H19S     HAL2     0.900000E-01   1.00800           0
       500 MEMB     5        SAPC     C220     CTL3    -0.180000       12.0110           0
       501 MEMB     5        SAPC     H20R     HAL3     0.900000E-01   1.00800           0
       502 MEMB     5        SAPC     H20S     HAL3     0.900000E-01   1.00800           0
       503 MEMB     5        SAPC     H20T     HAL3     0.900000E-01   1.00800           0
       504 MEMB     5        SAPC     C33      CTL2    -0.180000       12.0110           0
       505 MEMB     5        SAPC     H3X      HAL2     0.900000E-01   1.00800           0
       506 MEMB     5        SAPC     H3Y      HAL2     0.900000E-01   1.00800           0
       507 MEMB     5        SAPC     C34      CTL2    -0.180000       12.0110           0
       508 MEMB     5        SAPC     H4X      HAL2     0.900000E-01   1.00800           0
       509 MEMB     5        SAPC     H4Y      HAL2     0.900000E-01   1.00800           0
       510 MEMB     5        SAPC     C35      CTL2    -0.180000       12.0110           0
       511 MEMB     5        SAPC     H5X      HAL2     0.900000E-01   1.00800           0
       512 MEMB     5        SAPC     H5Y      HAL2     0.900000E-01   1.00800           0
       513 MEMB     5        SAPC     C36      CTL2    -0.180000       12.0110           0
       514 MEMB     5        SAPC     H6X      HAL2     0.900000E-01   1.00800           0
       515 MEMB     5        SAPC     H6Y      HAL2     0.900000E-01   1.00800           0
       516 MEMB     5        SAPC     C37      CTL2    -0.180000       12.0110           0
       517 MEMB     5        SAPC     H7X      HAL2     0.900000E-01   1.00800           0
       518 MEMB     5        SAPC     H7Y      HAL2     0.900000E-01   1.00800           0
       519 MEMB     5        SAPC     C38      CTL2    -0.180000       12.0110           0
       520 MEMB     5        SAPC     H8X      HAL2     0.900000E-01   1.00800           0
       521 MEMB     5        SAPC     H8Y      HAL2     0.900000E-01   1.00800           0
       522 MEMB     5        SAPC     C39      CTL2    -0.180000       12.0110           0
       523 MEMB     5        SAPC     H9X      HAL2     0.900000E-01   1.00800           0
       524 MEMB     5        SAPC     H9Y      HAL2     0.900000E-01   1.00800           0
       525 MEMB     5        SAPC     C310     CTL2    -0.180000       12.0110           0
       526 MEMB     5        SAPC     H10X     HAL2     0.900000E-01   1.00800           0
       527 MEMB     5        SAPC     H10Y     HAL2     0.900000E-01   1.00800           0
       528 MEMB     5        SAPC     C311     CTL2    -0.180000       12.0110           0
       529 MEMB     5        SAPC     H11X     HAL2     0.900000E-01   1.00800           0
       530 MEMB     5        SAPC     H11Y     HAL2     0.900000E-01   1.00800           0
       531 MEMB     5        SAPC     C312     CTL2    -0.180000       12.0110           0
       532 MEMB     5        SAPC     H12X     HAL2     0.900000E-01   1.00800           0
       533 MEMB     5        SAPC     H12Y     HAL2     0.900000E-01   1.00800           0
       534 MEMB     5        SAPC     C313     CTL2    -0.180000       12.0110           0
       535 MEMB     5        SAPC     H13X     HAL2     0.900000E-01   1.00800           0
       536 MEMB     5        SAPC     H13Y     HAL2     0.900000E-01   1.00800           0
       537 MEMB     5        SAPC     C314     CTL2    -0.180000       12.0110           0
       538 MEMB     5        SAPC     H14X     HAL2     0.900000E-01   1.00800           0
       539 MEMB     5        SAPC     H14Y     HAL2     0.900000E-01   1.00800           0
       540 MEMB     5        SAPC     C315     CTL2    -0.180000       12.0110           0
       541 MEMB     5        SAPC     H15X     HAL2     0.900000E-01   1.00800           0
       542 MEMB     5        SAPC     H15Y     HAL2     0.900000E-01   1.00800           0
       543 MEMB     5        SAPC     C316     CTL2    -0.180000       12.0110           0
       544 MEMB     5        SAPC     H16X     HAL2     0.900000E-01   1.00800           0
       545 MEMB     5        SAPC     H16Y     HAL2     0.900000E-01   1.00800           0
       546 MEMB     5        SAPC     C317     CTL2    -0.180000       12.0110           0
       547 MEMB     5        SAPC     H17X     HAL2     0.900000E-01   1.00800           0
       548 MEMB     5        SAPC     H17Y     HAL2     0.900000E-01   1.00800           0
       549 MEMB     5        SAPC     C318     CTL3    -0.270000       12.0110           0
       550 MEMB     5        SAPC     H18X     HAL3     0.900000E-01   1.00800           0
       551 MEMB     5        SAPC     H18Y     HAL3     0.900000E-01   1.00800           0
       552 MEMB     5        SAPC     H18Z     HAL3     0.900000E-01   1.00800           0
       553 MEMB     6        OSM      N        NTL     -0.600000       14.0070           0
       554 MEMB     6        OSM      C15      CTL5    -0.350000       12.0110           0
       555 MEMB     6        OSM      H15A     HL       0.250000       1.00800           0
       556 MEMB     6        OSM      H15B     HL       0.250000       1.00800           0
       557 MEMB     6        OSM      H15C     HL       0.250000       1.00800           0
       558 MEMB     6        OSM      C14      CTL5    -0.350000       12.0110           0
       559 MEMB     6        OSM      H14A     HL       0.250000       1.00800           0
       560 MEMB     6        OSM      H14B     HL       0.250000       1.00800           0
       561 MEMB     6        OSM      H14C     HL       0.250000       1.00800           0
       562 MEMB     6        OSM      C13      CTL5    -0.350000       12.0110           0
       563 MEMB     6        OSM      H13A     HL       0.250000       1.00800           0
       564 MEMB     6        OSM      H13B     HL       0.250000       1.00800           0
       565 MEMB     6        OSM      H13C     HL       0.250000       1.00800           0
       566 MEMB     6        OSM      C12      CTL2    -0.100000       12.0110           0
       567 MEMB     6        OSM      H12A     HL       0.250000       1.00800           0
       568 MEMB     6        OSM      H12B     HL       0.250000       1.00800           0
       569 MEMB     6        OSM      C11      CTL2    -0.800000E-01   12.0110           0
       570 MEMB     6        OSM      H11A     HAL2     0.900000E-01   1.00800           0
       571 MEMB     6        OSM      H11B     HAL2     0.900000E-01   1.00800           0
       572 MEMB     6        OSM      P        PL        1.50000       30.9740           0
       573 MEMB     6        OSM      O13      O2L     -0.780000       15.9994           0
       574 MEMB     6        OSM      O14      O2L     -0.780000       15.9994           0
       575 MEMB     6        OSM      O11      OSLP    -0.570000       15.9994           0
       576 MEMB     6        OSM      O12      OSLP    -0.570000       15.9994           0
       577 MEMB     6        OSM      C1S      CTL2    -0.800000E-01   12.0110           0
       578 MEMB     6        OSM      H1S      HAL2     0.900000E-01   1.00800           0
       579 MEMB     6        OSM      H1T      HAL2     0.900000E-01   1.00800           0
       580 MEMB     6        OSM      NF       NHL     -0.700000       14.0070           0
       581 MEMB     6        OSM      HNF      H        0.350000       1.00800           0
       582 MEMB     6        OSM      C2S      CTL1     0.300000       12.0110           0
       583 MEMB     6        OSM      H2S      HAL1     0.500000E-01   1.00800           0
       584 MEMB     6        OSM      C3S      CTO1     0.500000       12.0110           0
       585 MEMB     6        OSM      H3S      HAL1    -0.110000       1.00800           0
       586 MEMB     6        OSM      O3       OHL     -0.690000       15.9994           0
       587 MEMB     6        OSM      HO3      HOL      0.300000       1.00800           0
       588 MEMB     6        OSM      C4S      CEL3    -0.150000       12.0110           0
       589 MEMB     6        OSM      H4S      HEL1     0.150000       1.00800           0
       590 MEMB     6        OSM      C5S      CEL3    -0.150000       12.0110           0
       591 MEMB     6        OSM      H5S      HEL1     0.150000       1.00800           0
       592 MEMB     6        OSM      C6S      CTL2    -0.180000       12.0110           0
       593 MEMB     6        OSM      H6S      HAL2     0.900000E-01   1.00800           0
       594 MEMB     6        OSM      H6T      HAL2     0.900000E-01   1.00800           0
       595 MEMB     6        OSM      C7S      CTL2    -0.180000       12.0110           0
       596 MEMB     6        OSM      H7S      HAL2     0.900000E-01   1.00800           0
       597 MEMB     6        OSM      H7T      HAL2     0.900000E-01   1.00800           0
       598 MEMB     6        OSM      C8S      CTL2    -0.180000       12.0110           0
       599 MEMB     6        OSM      H8S      HAL2     0.900000E-01   1.00800           0
       600 MEMB     6        OSM      H8T      HAL2     0.900000E-01   1.00800           0
       601 MEMB     6        OSM      C9S      CTL2    -0.180000       12.0110           0
       602 MEMB     6        OSM      H9S      HAL2     0.900000E-01   1.00800           0
       603 MEMB     6        OSM      H9T      HAL2     0.900000E-01   1.00800           0
       604 MEMB     6        OSM      C10S     CTL2    -0.180000       12.0110           0
       605 MEMB     6        OSM      H10S     HAL2     0.900000E-01   1.00800           0
       606 MEMB     6        OSM      H10T     HAL2     0.900000E-01   1.00800           0
       607 MEMB     6        OSM      C11S     CTL2    -0.180000       12.0110           0
       608 MEMB     6        OSM      H11S     HAL2     0.900000E-01   1.00800           0
       609 MEMB     6        OSM      H11T     HAL2     0.900000E-01   1.00800           0
       610 MEMB     6        OSM      C12S     CTL2    -0.180000       12.0110           0
       611 MEMB     6        OSM      H12S     HAL2     0.900000E-01   1.00800           0
       612 MEMB     6        OSM      H12T     HAL2     0.900000E-01   1.00800           0
       613 MEMB     6        OSM      C13S     CTL2    -0.180000       12.0110           0
       614 MEMB     6        OSM      H13S     HAL2     0.900000E-01   1.00800           0
       615 MEMB     6        OSM      H13T     HAL2     0.900000E-01   1.00800           0
       616 MEMB     6        OSM      C14S     CTL2    -0.180000       12.0110           0
       617 MEMB     6        OSM      H14S     HAL2     0.900000E-01   1.00800           0
       618 MEMB     6        OSM      H14T     HAL2     0.900000E-01   1.00800           0
       619 MEMB     6        OSM      C15S     CTL2    -0.180000       12.0110           0
       620 MEMB     6        OSM      H15S     HAL2     0.900000E-01   1.00800           0
       621 MEMB     6        OSM      H15T     HAL2     0.900000E-01   1.00800           0
       622 MEMB     6        OSM      C16S     CTL2    -0.180000       12.0110           0
       623 MEMB     6        OSM      H16S     HAL2     0.900000E-01   1.00800           0
       624 MEMB     6        OSM      H16T     HAL2     0.900000E-01   1.00800           0
       625 MEMB     6        OSM      C17S     CTL2    -0.180000       12.0110           0
       626 MEMB     6        OSM      H17S     HAL2     0.900000E-01   1.00800           0
       627 MEMB     6        OSM      H17T     HAL2     0.900000E-01   1.00800           0
       628 MEMB     6        OSM      C18S     CTL3    -0.270000       12.0110           0
       629 MEMB     6        OSM      H18S     HAL3     0.900000E-01   1.00800           0
       630 MEMB     6        OSM      H18T     HAL3     0.900000E-01   1.00800           0
       631 MEMB     6        OSM      H18U     HAL3     0.900000E-01   1.00800           0
       632 MEMB     6        OSM      C1F      C        0.550000       12.0110           0
       633 MEMB     6        OSM      OF       O       -0.600000       15.9994           0
       634 MEMB     6        OSM      C2F      CTL2    -0.700000E-01   12.0110           0
       635 MEMB     6        OSM      H2F      HAL2     0.600000E-01   1.00800           0
       636 MEMB     6        OSM      H2G      HAL2     0.600000E-01   1.00800           0
       637 MEMB     6        OSM      C3F      CTL2    -0.180000       12.0110           0
       638 MEMB     6        OSM      H3F      HAL2     0.900000E-01   1.00800           0
       639 MEMB     6        OSM      H3G      HAL2     0.900000E-01   1.00800           0
       640 MEMB     6        OSM      C4F      CTL2    -0.180000       12.0110           0
       641 MEMB     6        OSM      H4F      HAL2     0.900000E-01   1.00800           0
       642 MEMB     6        OSM      H4G      HAL2     0.900000E-01   1.00800           0
       643 MEMB     6        OSM      C5F      CTL2    -0.180000       12.0110           0
       644 MEMB     6        OSM      H5F      HAL2     0.900000E-01   1.00800           0
       645 MEMB     6        OSM      H5G      HAL2     0.900000E-01   1.00800           0
       646 MEMB     6        OSM      C6F      CTL2    -0.180000       12.0110           0
       647 MEMB     6        OSM      H6F      HAL2     0.900000E-01   1.00800           0
       648 MEMB     6        OSM      H6G      HAL2     0.900000E-01   1.00800           0
       649 MEMB     6        OSM      C7F      CTL2    -0.180000       12.0110           0
       650 MEMB     6        OSM      H7F      HAL2     0.900000E-01   1.00800           0
       651 MEMB     6        OSM      H7G      HAL2     0.900000E-01   1.00800           0
       652 MEMB     6        OSM      C8F      CTL2    -0.180000       12.0110           0
       653 MEMB     6        OSM      H8F      HAL2     0.900000E-01   1.00800           0
       654 MEMB     6        OSM      H8G      HAL2     0.900000E-01   1.00800           0
       655 MEMB     6        OSM      C9F      CEL1    -0.150000       12.0110           0
       656 MEMB     6        OSM      H9F      HEL1     0.150000       1.00800           0
       657 MEMB     6        OSM      C10F     CEL1    -0.150000       12.0110           0
       658 MEMB     6        OSM      H10F     HEL1     0.150000       1.00800           0
       659 MEMB     6        OSM      C11F     CTL2    -0.180000       12.0110           0
       660 MEMB     6        OSM      H11F     HAL2     0.900000E-01   1.00800           0
       661 MEMB     6        OSM      H11G     HAL2     0.900000E-01   1.00800           0
       662 MEMB     6        OSM      C12F     CTL2    -0.180000       12.0110           0
       663 MEMB     6        OSM      H12F     HAL2     0.900000E-01   1.00800           0
       664 MEMB     6        OSM      H12G     HAL2     0.900000E-01   1.00800           0
       665 MEMB     6        OSM      C13F     CTL2    -0.180000       12.0110           0
       666 MEMB     6        OSM      H13F     HAL2     0.900000E-01   1.00800           0
       667 MEMB     6        OSM      H13G     HAL2     0.900000E-01   1.00800           0
       668 MEMB     6        OSM      C14F     CTL2    -0.180000       12.0110           0
       669 MEMB     6        OSM      H14F     HAL2     0.900000E-01   1.00800           0
       670 MEMB     6        OSM      H14G     HAL2     0.900000E-01   1.00800           0
       671 MEMB     6        OSM      C15F     CTL2    -0.180000       12.0110           0
       672 MEMB     6        OSM      H15F     HAL2     0.900000E-01   1.00800           0
       673 MEMB     6        OSM      H15G     HAL2     0.900000E-01   1.00800           0
       674 MEMB     6        OSM      C16F     CTL2    -0.180000       12.0110           0
       675 MEMB     6        OSM      H16F     HAL2     0.900000E-01   1.00800           0
       676 MEMB     6        OSM      H16G     HAL2     0.900000E-01   1.00800           0
       677 MEMB     6        OSM      C17F     CTL2    -0.180000       12.0110           0
       678 MEMB     6        OSM      H17F     HAL2     0.900000E-01   1.00800           0
       679 MEMB     6        OSM      H17G     HAL2     0.900000E-01   1.00800           0
       680 MEMB     6        OSM      C18F     CTL3    -0.270000       12.0110           0
       681 MEMB     6        OSM      H18F     HAL3     0.900000E-01   1.00800           0
       682 MEMB     6        OSM      H18G     HAL3     0.900000E-01   1.00800           0
       683 MEMB     6        OSM      H18H     HAL3     0.900000E-01   1.00800           0
       684 MEMB     7        CHL1     C3       CRL1     0.140000       12.0110           0
       685 MEMB     7        CHL1     H3       HGA1     0.900000E-01   1.00800           0
       686 MEMB     7        CHL1     O3       OHL     -0.660000       15.9994           0
       687 MEMB     7        CHL1     H3'      HOL      0.430000       1.00800           0
       688 MEMB     7        CHL1     C4       CRL2    -0.180000       12.0110           0
       689 MEMB     7        CHL1     H4A      HGA2     0.900000E-01   1.00800           0
       690 MEMB     7        CHL1     H4B      HGA2     0.900000E-01   1.00800           0
       691 MEMB     7        CHL1     C5       CEL1      0.00000       12.0110           0
       692 MEMB     7        CHL1     C6       CEL1    -0.150000       12.0110           0
       693 MEMB     7        CHL1     H6       HEL1     0.150000       1.00800           0
       694 MEMB     7        CHL1     C7       CRL2    -0.180000       12.0110           0
       695 MEMB     7        CHL1     H7A      HGA2     0.900000E-01   1.00800           0
       696 MEMB     7        CHL1     H7B      HGA2     0.900000E-01   1.00800           0
       697 MEMB     7        CHL1     C8       CRL1    -0.900000E-01   12.0110           0
       698 MEMB     7        CHL1     H8       HGA1     0.900000E-01   1.00800           0
       699 MEMB     7        CHL1     C14      CRL1    -0.900000E-01   12.0110           0
       700 MEMB     7        CHL1     H14      HGA1     0.900000E-01   1.00800           0
       701 MEMB     7        CHL1     C15      CRL2    -0.180000       12.0110           0
       702 MEMB     7        CHL1     H15A     HGA2     0.900000E-01   1.00800           0
       703 MEMB     7        CHL1     H15B     HGA2     0.900000E-01   1.00800           0
       704 MEMB     7        CHL1     C16      CRL2    -0.180000       12.0110           0
       705 MEMB     7        CHL1     H16A     HGA2     0.900000E-01   1.00800           0
       706 MEMB     7        CHL1     H16B     HGA2     0.900000E-01   1.00800           0
       707 MEMB     7        CHL1     C17      CRL1    -0.900000E-01   12.0110           0
       708 MEMB     7        CHL1     H17      HGA1     0.900000E-01   1.00800           0
       709 MEMB     7        CHL1     C13      CRL1      0.00000       12.0110           0
       710 MEMB     7        CHL1     C18      CTL3    -0.270000       12.0110           0
       711 MEMB     7        CHL1     H18A     HAL3     0.900000E-01   1.00800           0
       712 MEMB     7        CHL1     H18B     HAL3     0.900000E-01   1.00800           0
       713 MEMB     7        CHL1     H18C     HAL3     0.900000E-01   1.00800           0
       714 MEMB     7        CHL1     C12      CRL2    -0.180000       12.0110           0
       715 MEMB     7        CHL1     H12A     HGA2     0.900000E-01   1.00800           0
       716 MEMB     7        CHL1     H12B     HGA2     0.900000E-01   1.00800           0
       717 MEMB     7        CHL1     C11      CRL2    -0.180000       12.0110           0
       718 MEMB     7        CHL1     H11A     HGA2     0.900000E-01   1.00800           0
       719 MEMB     7        CHL1     H11B     HGA2     0.900000E-01   1.00800           0
       720 MEMB     7        CHL1     C9       CRL1    -0.900000E-01   12.0110           0
       721 MEMB     7        CHL1     H9       HGA1     0.900000E-01   1.00800           0
       722 MEMB     7        CHL1     C10      CRL1      0.00000       12.0110           0
       723 MEMB     7        CHL1     C19      CTL3    -0.270000       12.0110           0
       724 MEMB     7        CHL1     H19A     HAL3     0.900000E-01   1.00800           0
       725 MEMB     7        CHL1     H19B     HAL3     0.900000E-01   1.00800           0
       726 MEMB     7        CHL1     H19C     HAL3     0.900000E-01   1.00800           0
       727 MEMB     7        CHL1     C1       CRL2    -0.180000       12.0110           0
       728 MEMB     7        CHL1     H1A      HGA2     0.900000E-01   1.00800           0
       729 MEMB     7        CHL1     H1B      HGA2     0.900000E-01   1.00800           0
       730 MEMB     7        CHL1     C2       CRL2    -0.180000       12.0110           0
       731 MEMB     7        CHL1     H2A      HGA2     0.900000E-01   1.00800           0
       732 MEMB     7        CHL1     H2B      HGA2     0.900000E-01   1.00800           0
       733 MEMB     7        CHL1     C20      CTL1    -0.900000E-01   12.0110           0
       734 MEMB     7        CHL1     H20      HAL1     0.900000E-01   1.00800           0
       735 MEMB     7        CHL1     C21      CTL3    -0.270000       12.0110           0
       736 MEMB     7        CHL1     H21A     HAL3     0.900000E-01   1.00800           0
       737 MEMB     7        CHL1     H21B     HAL3     0.900000E-01   1.00800           0
       738 MEMB     7        CHL1     H21C     HAL3     0.900000E-01   1.00800           0
       739 MEMB     7        CHL1     C22      CTL2    -0.180000       12.0110           0
       740 MEMB     7        CHL1     H22A     HAL2     0.900000E-01   1.00800           0
       741 MEMB     7        CHL1     H22B     HAL2     0.900000E-01   1.00800           0
       742 MEMB     7        CHL1     C23      CTL2    -0.180000       12.0110           0
       743 MEMB     7        CHL1     H23A     HAL2     0.900000E-01   1.00800           0
       744 MEMB     7        CHL1     H23B     HAL2     0.900000E-01   1.00800           0
       745 MEMB     7        CHL1     C24      CTL2    -0.180000       12.0110           0
       746 MEMB     7        CHL1     H24A     HAL2     0.900000E-01   1.00800           0
       747 MEMB     7        CHL1     H24B     HAL2     0.900000E-01   1.00800           0
       748 MEMB     7        CHL1     C25      CTL1    -0.900000E-01   12.0110           0
       749 MEMB     7        CHL1     H25      HAL1     0.900000E-01   1.00800           0
       750 MEMB     7        CHL1     C26      CTL3    -0.270000       12.0110           0
       751 MEMB     7        CHL1     H26A     HAL3     0.900000E-01   1.00800           0
       752 MEMB     7        CHL1     H26B     HAL3     0.900000E-01   1.00800           0
       753 MEMB     7        CHL1     H26C     HAL3     0.900000E-01   1.00800           0
       754 MEMB     7        CHL1     C27      CTL3    -0.270000       12.0110           0
       755 MEMB     7        CHL1     H27A     HAL3     0.900000E-01   1.00800           0
       756 MEMB     7        CHL1     H27B     HAL3     0.900000E-01   1.00800           0
       757 MEMB     7        CHL1     H27C     HAL3     0.900000E-01   1.00800           0
       758 MEMB     8        CHL1     C3       CRL1     0.140000       12.0110           0
       759 MEMB     8        CHL1     H3       HGA1     0.900000E-01   1.00800           0
       760 MEMB     8        CHL1     O3       OHL     -0.660000       15.9994           0
       761 MEMB     8        CHL1     H3'      HOL      0.430000       1.00800           0
       762 MEMB     8        CHL1     C4       CRL2    -0.180000       12.0110           0
       763 MEMB     8        CHL1     H4A      HGA2     0.900000E-01   1.00800           0
       764 MEMB     8        CHL1     H4B      HGA2     0.900000E-01   1.00800           0
       765 MEMB     8        CHL1     C5       CEL1      0.00000       12.0110           0
       766 MEMB     8        CHL1     C6       CEL1    -0.150000       12.0110           0
       767 MEMB     8        CHL1     H6       HEL1     0.150000       1.00800           0
       768 MEMB     8        CHL1     C7       CRL2    -0.180000       12.0110           0
       769 MEMB     8        CHL1     H7A      HGA2     0.900000E-01   1.00800           0
       770 MEMB     8        CHL1     H7B      HGA2     0.900000E-01   1.00800           0
       771 MEMB     8        CHL1     C8       CRL1    -0.900000E-01   12.0110           0
       772 MEMB     8        CHL1     H8       HGA1     0.900000E-01   1.00800           0
       773 MEMB     8        CHL1     C14      CRL1    -0.900000E-01   12.0110           0
       774 MEMB     8        CHL1     H14      HGA1     0.900000E-01   1.00800           0
       775 MEMB     8        CHL1     C15      CRL2    -0.180000       12.0110           0
       776 MEMB     8        CHL1     H15A     HGA2     0.900000E-01   1.00800           0
       777 MEMB     8        CHL1     H15B     HGA2     0.900000E-01   1.00800           0
       778 MEMB     8        CHL1     C16      CRL2    -0.180000       12.0110           0
       779 MEMB     8        CHL1     H16A     HGA2     0.900000E-01   1.00800           0
       780 MEMB     8        CHL1     H16B     HGA2     0.900000E-01   1.00800           0
       781 MEMB     8        CHL1     C17      CRL1    -0.900000E-01   12.0110           0
       782 MEMB     8        CHL1     H17      HGA1     0.900000E-01   1.00800           0
       783 MEMB     8        CHL1     C13      CRL1      0.00000       12.0110           0
       784 MEMB     8        CHL1     C18      CTL3    -0.270000       12.0110           0
       785 MEMB     8        CHL1     H18A     HAL3     0.900000E-01   1.00800           0
       786 MEMB     8        CHL1     H18B     HAL3     0.900000E-01   1.00800           0
       787 MEMB     8        CHL1     H18C     HAL3     0.900000E-01   1.00800           0
       788 MEMB     8        CHL1     C12      CRL2    -0.180000       12.0110           0
       789 MEMB     8        CHL1     H12A     HGA2     0.900000E-01   1.00800           0
       790 MEMB     8        CHL1     H12B     HGA2     0.900000E-01   1.00800           0
       791 MEMB     8        CHL1     C11      CRL2    -0.180000       12.0110           0
       792 MEMB     8        CHL1     H11A     HGA2     0.900000E-01   1.00800           0
       793 MEMB     8        CHL1     H11B     HGA2     0.900000E-01   1.00800           0
       794 MEMB     8        CHL1     C9       CRL1    -0.900000E-01   12.0110           0
       795 MEMB     8        CHL1     H9       HGA1     0.900000E-01   1.00800           0
       796 MEMB     8        CHL1     C10      CRL1      0.00000       12.0110           0
       797 MEMB     8        CHL1     C19      CTL3    -0.270000       12.0110           0
       798 MEMB     8        CHL1     H19A     HAL3     0.900000E-01   1.00800           0
       799 MEMB     8        CHL1     H19B     HAL3     0.900000E-01   1.00800           0
       800 MEMB     8        CHL1     H19C     HAL3     0.900000E-01   1.00800           0
       801 MEMB     8        CHL1     C1       CRL2    -0.180000       12.0110           0
       802 MEMB     8        CHL1     H1A      HGA2     0.900000E-01   1.00800           0
       803 MEMB     8        CHL1     H1B      HGA2     0.900000E-01   1.00800           0
       804 MEMB     8        CHL1     C2       CRL2    -0.180000       12.0110           0
       805 MEMB     8        CHL1     H2A      HGA2     0.900000E-01   1.00800           0
       806 MEMB     8        CHL1     H2B      HGA2     0.900000E-01   1.00800           0
       807 MEMB     8        CHL1     C20      CTL1    -0.900000E-01   12.0110           0
       808 MEMB     8        CHL1     H20      HAL1     0.900000E-01   1.00800           0
       809 MEMB     8        CHL1     C21      CTL3    -0.270000       12.0110           0
       810 MEMB     8        CHL1     H21A     HAL3     0.900000E-01   1.00800           0
       811 MEMB     8        CHL1     H21B     HAL3     0.900000E-01   1.00800           0
       812 MEMB     8        CHL1     H21C     HAL3     0.900000E-01   1.00800           0
       813 MEMB     8        CHL1     C22      CTL2    -0.180000       12.0110           0
       814 MEMB     8        CHL1     H22A     HAL2     0.900000E-01   1.00800           0
       815 MEMB     8        CHL1     H22B     HAL2     0.900000E-01   1.00800           0
       816 MEMB     8        CHL1     C23      CTL2    -0.180000       12.0110           0
       817 MEMB     8        CHL1     H23A     HAL2     0.900000E-01   1.00800           0
       818 MEMB     8        CHL1     H23B     HAL2     0.900000E-01   1.00800           0
       819 MEMB     8        CHL1     C24      CTL2    -0.180000       12.0110           0
       820 MEMB     8        CHL1     H24A     HAL2     0.900000E-01   1.00800           0
       821 MEMB     8        CHL1     H24B     HAL2     0.900000E-01   1.00800           0
       822 MEMB     8        CHL1     C25      CTL1    -0.900000E-01   12.0110           0
       823 MEMB     8        CHL1     H25      HAL1     0.900000E-01   1.00800           0
       824 MEMB     8        CHL1     C26      CTL3    -0.270000       12.0110           0
       825 MEMB     8        CHL1     H26A     HAL3     0.900000E-01   1.00800           0
       826 MEMB     8        CHL1     H26B     HAL3     0.900000E-01   1.00800           0
       827 MEMB     8        CHL1     H26C     HAL3     0.900000E-01   1.00800           0
       828 MEMB     8        CHL1     C27      CTL3    -0.270000       12.0110           0
       829 MEMB     8        CHL1     H27A     HAL3     0.900000E-01   1.00800           0
       830 MEMB     8        CHL1     H27B     HAL3     0.900000E-01   1.00800           0
       831 MEMB     8        CHL1     H27C     HAL3     0.900000E-01   1.00800           0
       832 MEMB     9        OSM      N        NTL     -0.600000       14.0070           0
       833 MEMB     9        OSM      C15      CTL5    -0.350000       12.0110           0
       834 MEMB     9        OSM      H15A     HL       0.250000       1.00800           0
       835 MEMB     9        OSM      H15B     HL       0.250000       1.00800           0
       836 MEMB     9        OSM      H15C     HL       0.250000       1.00800           0
       837 MEMB     9        OSM      C14      CTL5    -0.350000       12.0110           0
       838 MEMB     9        OSM      H14A     HL       0.250000       1.00800           0
       839 MEMB     9        OSM      H14B     HL       0.250000       1.00800           0
       840 MEMB     9        OSM      H14C     HL       0.250000       1.00800           0
       841 MEMB     9        OSM      C13      CTL5    -0.350000       12.0110           0
       842 MEMB     9        OSM      H13A     HL       0.250000       1.00800           0
       843 MEMB     9        OSM      H13B     HL       0.250000       1.00800           0
       844 MEMB     9        OSM      H13C     HL       0.250000       1.00800           0
       845 MEMB     9        OSM      C12      CTL2    -0.100000       12.0110           0
       846 MEMB     9        OSM      H12A     HL       0.250000       1.00800           0
       847 MEMB     9        OSM      H12B     HL       0.250000       1.00800           0
       848 MEMB     9        OSM      C11      CTL2    -0.800000E-01   12.0110           0
       849 MEMB     9        OSM      H11A     HAL2     0.900000E-01   1.00800           0
       850 MEMB     9        OSM      H11B     HAL2     0.900000E-01   1.00800           0
       851 MEMB     9        OSM      P        PL        1.50000       30.9740           0
       852 MEMB     9        OSM      O13      O2L     -0.780000       15.9994           0
       853 MEMB     9        OSM      O14      O2L     -0.780000       15.9994           0
       854 MEMB     9        OSM      O11      OSLP    -0.570000       15.9994           0
       855 MEMB     9        OSM      O12      OSLP    -0.570000       15.9994           0
       856 MEMB     9        OSM      C1S      CTL2    -0.800000E-01   12.0110           0
       857 MEMB     9        OSM      H1S      HAL2     0.900000E-01   1.00800           0
       858 MEMB     9        OSM      H1T      HAL2     0.900000E-01   1.00800           0
       859 MEMB     9        OSM      NF       NHL     -0.700000       14.0070           0
       860 MEMB     9        OSM      HNF      H        0.350000       1.00800           0
       861 MEMB     9        OSM      C2S      CTL1     0.300000       12.0110           0
       862 MEMB     9        OSM      H2S      HAL1     0.500000E-01   1.00800           0
       863 MEMB     9        OSM      C3S      CTO1     0.500000       12.0110           0
       864 MEMB     9        OSM      H3S      HAL1    -0.110000       1.00800           0
       865 MEMB     9        OSM      O3       OHL     -0.690000       15.9994           0
       866 MEMB     9        OSM      HO3      HOL      0.300000       1.00800           0
       867 MEMB     9        OSM      C4S      CEL3    -0.150000       12.0110           0
       868 MEMB     9        OSM      H4S      HEL1     0.150000       1.00800           0
       869 MEMB     9        OSM      C5S      CEL3    -0.150000       12.0110           0
       870 MEMB     9        OSM      H5S      HEL1     0.150000       1.00800           0
       871 MEMB     9        OSM      C6S      CTL2    -0.180000       12.0110           0
       872 MEMB     9        OSM      H6S      HAL2     0.900000E-01   1.00800           0
       873 MEMB     9        OSM      H6T      HAL2     0.900000E-01   1.00800           0
       874 MEMB     9        OSM      C7S      CTL2    -0.180000       12.0110           0
       875 MEMB     9        OSM      H7S      HAL2     0.900000E-01   1.00800           0
       876 MEMB     9        OSM      H7T      HAL2     0.900000E-01   1.00800           0
       877 MEMB     9        OSM      C8S      CTL2    -0.180000       12.0110           0
       878 MEMB     9        OSM      H8S      HAL2     0.900000E-01   1.00800           0
       879 MEMB     9        OSM      H8T      HAL2     0.900000E-01   1.00800           0
       880 MEMB     9        OSM      C9S      CTL2    -0.180000       12.0110           0
       881 MEMB     9        OSM      H9S      HAL2     0.900000E-01   1.00800           0
       882 MEMB     9        OSM      H9T      HAL2     0.900000E-01   1.00800           0
       883 MEMB     9        OSM      C10S     CTL2    -0.180000       12.0110           0
       884 MEMB     9        OSM      H10S     HAL2     0.900000E-01   1.00800           0
       885 MEMB     9        OSM      H10T     HAL2     0.900000E-01   1.00800           0
       886 MEMB     9        OSM      C11S     CTL2    -0.180000       12.0110           0
       887 MEMB     9        OSM      H11S     HAL2     0.900000E-01   1.00800           0
       888 MEMB     9        OSM      H11T     HAL2     0.900000E-01   1.00800           0
       889 MEMB     9        OSM      C12S     CTL2    -0.180000       12.0110           0
       890 MEMB     9        OSM      H12S     HAL2     0.900000E-01   1.00800           0
       891 MEMB     9        OSM      H12T     HAL2     0.900000E-01   1.00800           0
       892 MEMB     9        OSM      C13S     CTL2    -0.180000       12.0110           0
       893 MEMB     9        OSM      H13S     HAL2     0.900000E-01   1.00800           0
       894 MEMB     9        OSM      H13T     HAL2     0.900000E-01   1.00800           0
       895 MEMB     9        OSM      C14S     CTL2    -0.180000       12.0110           0
       896 MEMB     9        OSM      H14S     HAL2     0.900000E-01   1.00800           0
       897 MEMB     9        OSM      H14T     HAL2     0.900000E-01   1.00800           0
       898 MEMB     9        OSM      C15S     CTL2    -0.180000       12.0110           0
       899 MEMB     9        OSM      H15S     HAL2     0.900000E-01   1.00800           0
       900 MEMB     9        OSM      H15T     HAL2     0.900000E-01   1.00800           0
       901 MEMB     9        OSM      C16S     CTL2    -0.180000       12.0110           0
       902 MEMB     9        OSM      H16S     HAL2     0.900000E-01   1.00800           0
       903 MEMB     9        OSM      H16T     HAL2     0.900000E-01   1.00800           0
       904 MEMB     9        OSM      C17S     CTL2    -0.180000       12.0110           0
       905 MEMB     9        OSM      H17S     HAL2     0.900000E-01   1.00800           0
       906 MEMB     9        OSM      H17T     HAL2     0.900000E-01   1.00800           0
       907 MEMB     9        OSM      C18S     CTL3    -0.270000       12.0110           0
       908 MEMB     9        OSM      H18S     HAL3     0.900000E-01   1.00800           0
       909 MEMB     9        OSM      H18T     HAL3     0.900000E-01   1.00800           0
       910 MEMB     9        OSM      H18U     HAL3     0.900000E-01   1.00800           0
       911 MEMB     9        OSM      C1F      C        0.550000       12.0110           0
       912 MEMB     9        OSM      OF       O       -0.600000       15.9994           0
       913 MEMB     9        OSM      C2F      CTL2    -0.700000E-01   12.0110           0
       914 MEMB     9        OSM      H2F      HAL2     0.600000E-01   1.00800           0
       915 MEMB     9        OSM      H2G      HAL2     0.600000E-01   1.00800           0
       916 MEMB     9        OSM      C3F      CTL2    -0.180000       12.0110           0
       917 MEMB     9        OSM      H3F      HAL2     0.900000E-01   1.00800           0
       918 MEMB     9        OSM      H3G      HAL2     0.900000E-01   1.00800           0
       919 MEMB     9        OSM      C4F      CTL2    -0.180000       12.0110           0
       920 MEMB     9        OSM      H4F      HAL2     0.900000E-01   1.00800           0
       921 MEMB     9        OSM      H4G      HAL2     0.900000E-01   1.00800           0
       922 MEMB     9        OSM      C5F      CTL2    -0.180000       12.0110           0
       923 MEMB     9        OSM      H5F      HAL2     0.900000E-01   1.00800           0
       924 MEMB     9        OSM      H5G      HAL2     0.900000E-01   1.00800           0
       925 MEMB     9        OSM      C6F      CTL2    -0.180000       12.0110           0
       926 MEMB     9        OSM      H6F      HAL2     0.900000E-01   1.00800           0
       927 MEMB     9        OSM      H6G      HAL2     0.900000E-01   1.00800           0
       928 MEMB     9        OSM      C7F      CTL2    -0.180000       12.0110           0
       929 MEMB     9        OSM      H7F      HAL2     0.900000E-01   1.00800           0
       930 MEMB     9        OSM      H7G      HAL2     0.900000E-01   1.00800           0
       931 MEMB     9        OSM      C8F      CTL2    -0.180000       12.0110           0
       932 MEMB     9        OSM      H8F      HAL2     0.900000E-01   1.00800           0
       933 MEMB     9        OSM      H8G      HAL2     0.900000E-01   1.00800           0
       934 MEMB     9        OSM      C9F      CEL1    -0.150000       12.0110           0
       935 MEMB     9        OSM      H9F      HEL1     0.150000       1.00800           0
       936 MEMB     9        OSM      C10F     CEL1    -0.150000       12.0110           0
       937 MEMB     9        OSM      H10F     HEL1     0.150000       1.00800           0
       938 MEMB     9        OSM      C11F     CTL2    -0.180000       12.0110           0
       939 MEMB     9        OSM      H11F     HAL2     0.900000E-01   1.00800           0
       940 MEMB     9        OSM      H11G     HAL2     0.900000E-01   1.00800           0
       941 MEMB     9        OSM      C12F     CTL2    -0.180000       12.0110           0
       942 MEMB     9        OSM      H12F     HAL2     0.900000E-01   1.00800           0
       943 MEMB     9        OSM      H12G     HAL2     0.900000E-01   1.00800           0
       944 MEMB     9        OSM      C13F     CTL2    -0.180000       12.0110           0
       945 MEMB     9        OSM      H13F     HAL2     0.900000E-01   1.00800           0
       946 MEMB     9        OSM      H13G     HAL2     0.900000E-01   1.00800           0
       947 MEMB     9        OSM      C14F     CTL2    -0.180000       12.0110           0
       948 MEMB     9        OSM      H14F     HAL2     0.900000E-01   1.00800           0
       949 MEMB     9        OSM      H14G     HAL2     0.900000E-01   1.00800           0
       950 MEMB     9        OSM      C15F     CTL2    -0.180000       12.0110           0
       951 MEMB     9        OSM      H15F     HAL2     0.900000E-01   1.00800           0
       952 MEMB     9        OSM      H15G     HAL2     0.900000E-01   1.00800           0
       953 MEMB     9        OSM      C16F     CTL2    -0.180000       12.0110           0
       954 MEMB     9        OSM      H16F     HAL2     0.900000E-01   1.00800           0
       955 MEMB     9        OSM      H16G     HAL2     0.900000E-01   1.00800           0
       956 MEMB     9        OSM      C17F     CTL2    -0.180000       12.0110           0
       957 MEMB     9        OSM      H17F     HAL2     0.900000E-01   1.00800           0
       958 MEMB     9        OSM      H17G     HAL2     0.900000E-01   1.00800           0
       959 MEMB     9        OSM      C18F     CTL3    -0.270000       12.0110           0
       960 MEMB     9        OSM      H18F     HAL3     0.900000E-01   1.00800           0
       961 MEMB     9        OSM      H18G     HAL3     0.900000E-01   1.00800           0
       962 MEMB     9        OSM      H18H     HAL3     0.900000E-01   1.00800           0
       963 MEMB     10       SOPE     N        NH3L    -0.300000       14.0070           0
       964 MEMB     10       SOPE     HN1      HCL      0.330000       1.00800           0
       965 MEMB     10       SOPE     HN2      HCL      0.330000       1.00800           0
       966 MEMB     10       SOPE     HN3      HCL      0.330000       1.00800           0
       967 MEMB     10       SOPE     C12      CTL2     0.130000       12.0110           0
       968 MEMB     10       SOPE     H12A     HAL2     0.900000E-01   1.00800           0
       969 MEMB     10       SOPE     H12B     HAL2     0.900000E-01   1.00800           0
       970 MEMB     10       SOPE     C11      CTL2    -0.800000E-01   12.0110           0
       971 MEMB     10       SOPE     H11A     HAL2     0.900000E-01   1.00800           0
       972 MEMB     10       SOPE     H11B     HAL2     0.900000E-01   1.00800           0
       973 MEMB     10       SOPE     P        PL        1.50000       30.9740           0
       974 MEMB     10       SOPE     O13      O2L     -0.780000       15.9994           0
       975 MEMB     10       SOPE     O14      O2L     -0.780000       15.9994           0
       976 MEMB     10       SOPE     O12      OSLP    -0.570000       15.9994           0
       977 MEMB     10       SOPE     O11      OSLP    -0.570000       15.9994           0
       978 MEMB     10       SOPE     C1       CTL2    -0.800000E-01   12.0110           0
       979 MEMB     10       SOPE     HA       HAL2     0.900000E-01   1.00800           0
       980 MEMB     10       SOPE     HB       HAL2     0.900000E-01   1.00800           0
       981 MEMB     10       SOPE     C2       CTL1     0.170000       12.0110           0
       982 MEMB     10       SOPE     HS       HAL1     0.900000E-01   1.00800           0
       983 MEMB     10       SOPE     O21      OSL     -0.490000       15.9994           0
       984 MEMB     10       SOPE     C21      CL       0.900000       12.0110           0
       985 MEMB     10       SOPE     O22      OBL     -0.630000       15.9994           0
       986 MEMB     10       SOPE     C22      CTL2    -0.220000       12.0110           0
       987 MEMB     10       SOPE     H2R      HAL2     0.900000E-01   1.00800           0
       988 MEMB     10       SOPE     H2S      HAL2     0.900000E-01   1.00800           0
       989 MEMB     10       SOPE     C3       CTL2     0.800000E-01   12.0110           0
       990 MEMB     10       SOPE     HX       HAL2     0.900000E-01   1.00800           0
       991 MEMB     10       SOPE     HY       HAL2     0.900000E-01   1.00800           0
       992 MEMB     10       SOPE     O31      OSL     -0.490000       15.9994           0
       993 MEMB     10       SOPE     C31      CL       0.900000       12.0110           0
       994 MEMB     10       SOPE     O32      OBL     -0.630000       15.9994           0
       995 MEMB     10       SOPE     C32      CTL2    -0.220000       12.0110           0
       996 MEMB     10       SOPE     H2X      HAL2     0.900000E-01   1.00800           0
       997 MEMB     10       SOPE     H2Y      HAL2     0.900000E-01   1.00800           0
       998 MEMB     10       SOPE     C23      CTL2    -0.180000       12.0110           0
       999 MEMB     10       SOPE     H3R      HAL2     0.900000E-01   1.00800           0
      1000 MEMB     10       SOPE     H3S      HAL2     0.900000E-01   1.00800           0
      1001 MEMB     10       SOPE     C24      CTL2    -0.180000       12.0110           0
      1002 MEMB     10       SOPE     H4R      HAL2     0.900000E-01   1.00800           0
      1003 MEMB     10       SOPE     H4S      HAL2     0.900000E-01   1.00800           0
      1004 MEMB     10       SOPE     C25      CTL2    -0.180000       12.0110           0
      1005 MEMB     10       SOPE     H5R      HAL2     0.900000E-01   1.00800           0
      1006 MEMB     10       SOPE     H5S      HAL2     0.900000E-01   1.00800           0
      1007 MEMB     10       SOPE     C26      CTL2    -0.180000       12.0110           0
      1008 MEMB     10       SOPE     H6R      HAL2     0.900000E-01   1.00800           0
      1009 MEMB     10       SOPE     H6S      HAL2     0.900000E-01   1.00800           0
      1010 MEMB     10       SOPE     C27      CTL2    -0.180000       12.0110           0
      1011 MEMB     10       SOPE     H7R      HAL2     0.900000E-01   1.00800           0
      1012 MEMB     10       SOPE     H7S      HAL2     0.900000E-01   1.00800           0
      1013 MEMB     10       SOPE     C28      CTL2    -0.180000       12.0110           0
      1014 MEMB     10       SOPE     H8R      HAL2     0.900000E-01   1.00800           0
      1015 MEMB     10       SOPE     H8S      HAL2     0.900000E-01   1.00800           0
      1016 MEMB     10       SOPE     C29      CEL1    -0.150000       12.0110           0
      1017 MEMB     10       SOPE     H91      HEL1     0.150000       1.00800           0
      1018 MEMB     10       SOPE     C210     CEL1    -0.150000       12.0110           0
      1019 MEMB     10       SOPE     H101     HEL1     0.150000       1.00800           0
      1020 MEMB     10       SOPE     C211     CTL2    -0.180000       12.0110           0
      1021 MEMB     10       SOPE     H11R     HAL2     0.900000E-01   1.00800           0
      1022 MEMB     10       SOPE     H11S     HAL2     0.900000E-01   1.00800           0
      1023 MEMB     10       SOPE     C212     CTL2    -0.180000       12.0110           0
      1024 MEMB     10       SOPE     H12R     HAL2     0.900000E-01   1.00800           0
      1025 MEMB     10       SOPE     H12S     HAL2     0.900000E-01   1.00800           0
      1026 MEMB     10       SOPE     C213     CTL2    -0.180000       12.0110           0
      1027 MEMB     10       SOPE     H13R     HAL2     0.900000E-01   1.00800           0
      1028 MEMB     10       SOPE     H13S     HAL2     0.900000E-01   1.00800           0
      1029 MEMB     10       SOPE     C214     CTL2    -0.180000       12.0110           0
      1030 MEMB     10       SOPE     H14R     HAL2     0.900000E-01   1.00800           0
      1031 MEMB     10       SOPE     H14S     HAL2     0.900000E-01   1.00800           0
      1032 MEMB     10       SOPE     C215     CTL2    -0.180000       12.0110           0
      1033 MEMB     10       SOPE     H15R     HAL2     0.900000E-01   1.00800           0
      1034 MEMB     10       SOPE     H15S     HAL2     0.900000E-01   1.00800           0
      1035 MEMB     10       SOPE     C216     CTL2    -0.180000       12.0110           0
      1036 MEMB     10       SOPE     H16R     HAL2     0.900000E-01   1.00800           0
      1037 MEMB     10       SOPE     H16S     HAL2     0.900000E-01   1.00800           0
      1038 MEMB     10       SOPE     C217     CTL2    -0.180000       12.0110           0
      1039 MEMB     10       SOPE     H17R     HAL2     0.900000E-01   1.00800           0
      1040 MEMB     10       SOPE     H17S     HAL2     0.900000E-01   1.00800           0
      1041 MEMB     10       SOPE     C218     CTL3    -0.270000       12.0110           0
      1042 MEMB     10       SOPE     H18R     HAL3     0.900000E-01   1.00800           0
      1043 MEMB     10       SOPE     H18S     HAL3     0.900000E-01   1.00800           0
      1044 MEMB     10       SOPE     H18T     HAL3     0.900000E-01   1.00800           0
      1045 MEMB     10       SOPE     C33      CTL2    -0.180000       12.0110           0
      1046 MEMB     10       SOPE     H3X      HAL2     0.900000E-01   1.00800           0
      1047 MEMB     10       SOPE     H3Y      HAL2     0.900000E-01   1.00800           0
      1048 MEMB     10       SOPE     C34      CTL2    -0.180000       12.0110           0
      1049 MEMB     10       SOPE     H4X      HAL2     0.900000E-01   1.00800           0
      1050 MEMB     10       SOPE     H4Y      HAL2     0.900000E-01   1.00800           0
      1051 MEMB     10       SOPE     C35      CTL2    -0.180000       12.0110           0
      1052 MEMB     10       SOPE     H5X      HAL2     0.900000E-01   1.00800           0
      1053 MEMB     10       SOPE     H5Y      HAL2     0.900000E-01   1.00800           0
      1054 MEMB     10       SOPE     C36      CTL2    -0.180000       12.0110           0
      1055 MEMB     10       SOPE     H6X      HAL2     0.900000E-01   1.00800           0
      1056 MEMB     10       SOPE     H6Y      HAL2     0.900000E-01   1.00800           0
      1057 MEMB     10       SOPE     C37      CTL2    -0.180000       12.0110           0
      1058 MEMB     10       SOPE     H7X      HAL2     0.900000E-01   1.00800           0
      1059 MEMB     10       SOPE     H7Y      HAL2     0.900000E-01   1.00800           0
      1060 MEMB     10       SOPE     C38      CTL2    -0.180000       12.0110           0
      1061 MEMB     10       SOPE     H8X      HAL2     0.900000E-01   1.00800           0
      1062 MEMB     10       SOPE     H8Y      HAL2     0.900000E-01   1.00800           0
      1063 MEMB     10       SOPE     C39      CTL2    -0.180000       12.0110           0
      1064 MEMB     10       SOPE     H9X      HAL2     0.900000E-01   1.00800           0
      1065 MEMB     10       SOPE     H9Y      HAL2     0.900000E-01   1.00800           0
      1066 MEMB     10       SOPE     C310     CTL2    -0.180000       12.0110           0
      1067 MEMB     10       SOPE     H10X     HAL2     0.900000E-01   1.00800           0
      1068 MEMB     10       SOPE     H10Y     HAL2     0.900000E-01   1.00800           0
      1069 MEMB     10       SOPE     C311     CTL2    -0.180000       12.0110           0
      1070 MEMB     10       SOPE     H11X     HAL2     0.900000E-01   1.00800           0
      1071 MEMB     10       SOPE     H11Y     HAL2     0.900000E-01   1.00800           0
      1072 MEMB     10       SOPE     C312     CTL2    -0.180000       12.0110           0
      1073 MEMB     10       SOPE     H12X     HAL2     0.900000E-01   1.00800           0
      1074 MEMB     10       SOPE     H12Y     HAL2     0.900000E-01   1.00800           0
      1075 MEMB     10       SOPE     C313     CTL2    -0.180000       12.0110           0
      1076 MEMB     10       SOPE     H13X     HAL2     0.900000E-01   1.00800           0
      1077 MEMB     10       SOPE     H13Y     HAL2     0.900000E-01   1.00800           0
      1078 MEMB     10       SOPE     C314     CTL2    -0.180000       12.0110           0
      1079 MEMB     10       SOPE     H14X     HAL2     0.900000E-01   1.00800           0
      1080 MEMB     10       SOPE     H14Y     HAL2     0.900000E-01   1.00800           0
      1081 MEMB     10       SOPE     C315     CTL2    -0.180000       12.0110           0
      1082 MEMB     10       SOPE     H15X     HAL2     0.900000E-01   1.00800           0
      1083 MEMB     10       SOPE     H15Y     HAL2     0.900000E-01   1.00800           0
      1084 MEMB     10       SOPE     C316     CTL2    -0.180000       12.0110           0
      1085 MEMB     10       SOPE     H16X     HAL2     0.900000E-01   1.00800           0
      1086 MEMB     10       SOPE     H16Y     HAL2     0.900000E-01   1.00800           0
      1087 MEMB     10       SOPE     C317     CTL2    -0.180000       12.0110           0
      1088 MEMB     10       SOPE     H17X     HAL2     0.900000E-01   1.00800           0
      1089 MEMB     10       SOPE     H17Y     HAL2     0.900000E-01   1.00800           0
      1090 MEMB     10       SOPE     C318     CTL3    -0.270000       12.0110           0
      1091 MEMB     10       SOPE     H18X     HAL3     0.900000E-01   1.00800           0
      1092 MEMB     10       SOPE     H18Y     HAL3     0.900000E-01   1.00800           0
      1093 MEMB     10       SOPE     H18Z     HAL3     0.900000E-01   1.00800           0
      1094 MEMB     11       OSM      N        NTL     -0.600000       14.0070           0
      1095 MEMB     11       OSM      C15      CTL5    -0.350000       12.0110           0
      1096 MEMB     11       OSM      H15A     HL       0.250000       1.00800           0
      1097 MEMB     11       OSM      H15B     HL       0.250000       1.00800           0
      1098 MEMB     11       OSM      H15C     HL       0.250000       1.00800           0
      1099 MEMB     11       OSM      C14      CTL5    -0.350000       12.0110           0
      1100 MEMB     11       OSM      H14A     HL       0.250000       1.00800           0
      1101 MEMB     11       OSM      H14B     HL       0.250000       1.00800           0
      1102 MEMB     11       OSM      H14C     HL       0.250000       1.00800           0
      1103 MEMB     11       OSM      C13      CTL5    -0.350000       12.0110           0
      1104 MEMB     11       OSM      H13A     HL       0.250000       1.00800           0
      1105 MEMB     11       OSM      H13B     HL       0.250000       1.00800           0
      1106 MEMB     11       OSM      H13C     HL       0.250000       1.00800           0
      1107 MEMB     11       OSM      C12      CTL2    -0.100000       12.0110           0
      1108 MEMB     11       OSM      H12A     HL       0.250000       1.00800           0
      1109 MEMB     11       OSM      H12B     HL       0.250000       1.00800           0
      1110 MEMB     11       OSM      C11      CTL2    -0.800000E-01   12.0110           0
      1111 MEMB     11       OSM      H11A     HAL2     0.900000E-01   1.00800           0
      1112 MEMB     11       OSM      H11B     HAL2     0.900000E-01   1.00800           0
      1113 MEMB     11       OSM      P        PL        1.50000       30.9740           0
      1114 MEMB     11       OSM      O13      O2L     -0.780000       15.9994           0
      1115 MEMB     11       OSM      O14      O2L     -0.780000       15.9994           0
      1116 MEMB     11       OSM      O11      OSLP    -0.570000       15.9994           0
      1117 MEMB     11       OSM      O12      OSLP    -0.570000       15.9994           0
      1118 MEMB     11       OSM      C1S      CTL2    -0.800000E-01   12.0110           0
      1119 MEMB     11       OSM      H1S      HAL2     0.900000E-01   1.00800           0
      1120 MEMB     11       OSM      H1T      HAL2     0.900000E-01   1.00800           0
      1121 MEMB     11       OSM      NF       NHL     -0.700000       14.0070           0
      1122 MEMB     11       OSM      HNF      H        0.350000       1.00800           0
      1123 MEMB     11       OSM      C2S      CTL1     0.300000       12.0110           0
      1124 MEMB     11       OSM      H2S      HAL1     0.500000E-01   1.00800           0
      1125 MEMB     11       OSM      C3S      CTO1     0.500000       12.0110           0
      1126 MEMB     11       OSM      H3S      HAL1    -0.110000       1.00800           0
      1127 MEMB     11       OSM      O3       OHL     -0.690000       15.9994           0
      1128 MEMB     11       OSM      HO3      HOL      0.300000       1.00800           0
      1129 MEMB     11       OSM      C4S      CEL3    -0.150000       12.0110           0
      1130 MEMB     11       OSM      H4S      HEL1     0.150000       1.00800           0
      1131 MEMB     11       OSM      C5S      CEL3    -0.150000       12.0110           0
      1132 MEMB     11       OSM      H5S      HEL1     0.150000       1.00800           0
      1133 MEMB     11       OSM      C6S      CTL2    -0.180000       12.0110           0
      1134 MEMB     11       OSM      H6S      HAL2     0.900000E-01   1.00800           0
      1135 MEMB     11       OSM      H6T      HAL2     0.900000E-01   1.00800           0
      1136 MEMB     11       OSM      C7S      CTL2    -0.180000       12.0110           0
      1137 MEMB     11       OSM      H7S      HAL2     0.900000E-01   1.00800           0
      1138 MEMB     11       OSM      H7T      HAL2     0.900000E-01   1.00800           0
      1139 MEMB     11       OSM      C8S      CTL2    -0.180000       12.0110           0
      1140 MEMB     11       OSM      H8S      HAL2     0.900000E-01   1.00800           0
      1141 MEMB     11       OSM      H8T      HAL2     0.900000E-01   1.00800           0
      1142 MEMB     11       OSM      C9S      CTL2    -0.180000       12.0110           0
      1143 MEMB     11       OSM      H9S      HAL2     0.900000E-01   1.00800           0
      1144 MEMB     11       OSM      H9T      HAL2     0.900000E-01   1.00800           0
      1145 MEMB     11       OSM      C10S     CTL2    -0.180000       12.0110           0
      1146 MEMB     11       OSM      H10S     HAL2     0.900000E-01   1.00800           0
      1147 MEMB     11       OSM      H10T     HAL2     0.900000E-01   1.00800           0
      1148 MEMB     11       OSM      C11S     CTL2    -0.180000       12.0110           0
      1149 MEMB     11       OSM      H11S     HAL2     0.900000E-01   1.00800           0
      1150 MEMB     11       OSM      H11T     HAL2     0.900000E-01   1.00800           0
      1151 MEMB     11       OSM      C12S     CTL2    -0.180000       12.0110           0
      1152 MEMB     11       OSM      H12S     HAL2     0.900000E-01   1.00800           0
      1153 MEMB     11       OSM      H12T     HAL2     0.900000E-01   1.00800           0
      1154 MEMB     11       OSM      C13S     CTL2    -0.180000       12.0110           0
      1155 MEMB     11       OSM      H13S     HAL2     0.900000E-01   1.00800           0
      1156 MEMB     11       OSM      H13T     HAL2     0.900000E-01   1.00800           0
      1157 MEMB     11       OSM      C14S     CTL2    -0.180000       12.0110           0
      1158 MEMB     11       OSM      H14S     HAL2     0.900000E-01   1.00800           0
      1159 MEMB     11       OSM      H14T     HAL2     0.900000E-01   1.00800           0
      1160 MEMB     11       OSM      C15S     CTL2    -0.180000       12.0110           0
      1161 MEMB     11       OSM      H15S     HAL2     0.900000E-01   1.00800           0
      1162 MEMB     11       OSM      H15T     HAL2     0.900000E-01   1.00800           0
      1163 MEMB     11       OSM      C16S     CTL2    -0.180000       12.0110           0
      1164 MEMB     11       OSM      H16S     HAL2     0.900000E-01   1.00800           0
      1165 MEMB     11       OSM      H16T     HAL2     0.900000E-01   1.00800           0
      1166 MEMB     11       OSM      C17S     CTL2    -0.180000       12.0110           0
      1167 MEMB     11       OSM      H17S     HAL2     0.900000E-01   1.00800           0
      1168 MEMB     11       OSM      H17T     HAL2     0.900000E-01   1.00800           0
      1169 MEMB     11       OSM      C18S     CTL3    -0.270000       12.0110           0
      1170 MEMB     11       OSM      H18S     HAL3     0.900000E-01   1.00800           0
      1171 MEMB     11       OSM      H18T     HAL3     0.900000E-01   1.00800           0
      1172 MEMB     11       OSM      H18U     HAL3     0.900000E-01   1.00800           0
      1173 MEMB     11       OSM      C1F      C        0.550000       12.0110           0
      1174 MEMB     11       OSM      OF       O       -0.600000       15.9994           0
      1175 MEMB     11       OSM      C2F      CTL2    -0.700000E-01   12.0110           0
      1176 MEMB     11       OSM      H2F      HAL2     0.600000E-01   1.00800           0
      1177 MEMB     11       OSM      H2G      HAL2     0.600000E-01   1.00800           0
      1178 MEMB     11       OSM      C3F      CTL2    -0.180000       12.0110           0
      1179 MEMB     11       OSM      H3F      HAL2     0.900000E-01   1.00800           0
      1180 MEMB     11       OSM      H3G      HAL2     0.900000E-01   1.00800           0
      1181 MEMB     11       OSM      C4F      CTL2    -0.180000       12.0110           0
      1182 MEMB     11       OSM      H4F      HAL2     0.900000E-01   1.00800           0
      1183 MEMB     11       OSM      H4G      HAL2     0.900000E-01   1.00800           0
      1184 MEMB     11       OSM      C5F      CTL2    -0.180000       12.0110           0
      1185 MEMB     11       OSM      H5F      HAL2     0.900000E-01   1.00800           0
      1186 MEMB     11       OSM      H5G      HAL2     0.900000E-01   1.00800           0
      1187 MEMB     11       OSM      C6F      CTL2    -0.180000       12.0110           0
      1188 MEMB     11       OSM      H6F      HAL2     0.900000E-01   1.00800           0
      1189 MEMB     11       OSM      H6G      HAL2     0.900000E-01   1.00800           0
      1190 MEMB     11       OSM      C7F      CTL2    -0.180000       12.0110           0
      1191 MEMB     11       OSM      H7F      HAL2     0.900000E-01   1.00800           0
      1192 MEMB     11       OSM      H7G      HAL2     0.900000E-01   1.00800           0
      1193 MEMB     11       OSM      C8F      CTL2    -0.180000       12.0110           0
      1194 MEMB     11       OSM      H8F      HAL2     0.900000E-01   1.00800           0
      1195 MEMB     11       OSM      H8G      HAL2     0.900000E-01   1.00800           0
      1196 MEMB     11       OSM      C9F      CEL1    -0.150000       12.0110           0
      1197 MEMB     11       OSM      H9F      HEL1     0.150000       1.00800           0
      1198 MEMB     11       OSM      C10F     CEL1    -0.150000       12.0110           0
      1199 MEMB     11       OSM      H10F     HEL1     0.150000       1.00800           0
      1200 MEMB     11       OSM      C11F     CTL2    -0.180000       12.0110           0
      1201 MEMB     11       OSM      H11F     HAL2     0.900000E-01   1.00800           0
      1202 MEMB     11       OSM      H11G     HAL2     0.900000E-01   1.00800           0
      1203 MEMB     11       OSM      C12F     CTL2    -0.180000       12.0110           0
      1204 MEMB     11       OSM      H12F     HAL2     0.900000E-01   1.00800           0
      1205 MEMB     11       OSM      H12G     HAL2     0.900000E-01   1.00800           0
      1206 MEMB     11       OSM      C13F     CTL2    -0.180000       12.0110           0
      1207 MEMB     11       OSM      H13F     HAL2     0.900000E-01   1.00800           0
      1208 MEMB     11       OSM      H13G     HAL2     0.900000E-01   1.00800           0
      1209 MEMB     11       OSM      C14F     CTL2    -0.180000       12.0110           0
      1210 MEMB     11       OSM      H14F     HAL2     0.900000E-01   1.00800           0
      1211 MEMB     11       OSM      H14G     HAL2     0.900000E-01   1.00800           0
      1212 MEMB     11       OSM      C15F     CTL2    -0.180000       12.0110           0
      1213 MEMB     11       OSM      H15F     HAL2     0.900000E-01   1.00800           0
      1214 MEMB     11       OSM      H15G     HAL2     0.900000E-01   1.00800           0
      1215 MEMB     11       OSM      C16F     CTL2    -0.180000       12.0110           0
      1216 MEMB     11       OSM      H16F     HAL2     0.900000E-01   1.00800           0
      1217 MEMB     11       OSM      H16G     HAL2     0.900000E-01   1.00800           0
      1218 MEMB     11       OSM      C17F     CTL2    -0.180000       12.0110           0
      1219 MEMB     11       OSM      H17F     HAL2     0.900000E-01   1.00800           0
      1220 MEMB     11       OSM      H17G     HAL2     0.900000E-01   1.00800           0
      1221 MEMB     11       OSM      C18F     CTL3    -0.270000       12.0110           0
      1222 MEMB     11       OSM      H18F     HAL3     0.900000E-01   1.00800           0
      1223 MEMB     11       OSM      H18G     HAL3     0.900000E-01   1.00800           0
      1224 MEMB     11       OSM      H18H     HAL3     0.900000E-01   1.00800           0
      1225 MEMB     12       CHL1     C3       CRL1     0.140000       12.0110           0
      1226 MEMB     12       CHL1     H3       HGA1     0.900000E-01   1.00800           0
      1227 MEMB     12       CHL1     O3       OHL     -0.660000       15.9994           0
      1228 MEMB     12       CHL1     H3'      HOL      0.430000       1.00800           0
      1229 MEMB     12       CHL1     C4       CRL2    -0.180000       12.0110           0
      1230 MEMB     12       CHL1     H4A      HGA2     0.900000E-01   1.00800           0
      1231 MEMB     12       CHL1     H4B      HGA2     0.900000E-01   1.00800           0
      1232 MEMB     12       CHL1     C5       CEL1      0.00000       12.0110           0
      1233 MEMB     12       CHL1     C6       CEL1    -0.150000       12.0110           0
      1234 MEMB     12       CHL1     H6       HEL1     0.150000       1.00800           0
      1235 MEMB     12       CHL1     C7       CRL2    -0.180000       12.0110           0
      1236 MEMB     12       CHL1     H7A      HGA2     0.900000E-01   1.00800           0
      1237 MEMB     12       CHL1     H7B      HGA2     0.900000E-01   1.00800           0
      1238 MEMB     12       CHL1     C8       CRL1    -0.900000E-01   12.0110           0
      1239 MEMB     12       CHL1     H8       HGA1     0.900000E-01   1.00800           0
      1240 MEMB     12       CHL1     C14      CRL1    -0.900000E-01   12.0110           0
      1241 MEMB     12       CHL1     H14      HGA1     0.900000E-01   1.00800           0
      1242 MEMB     12       CHL1     C15      CRL2    -0.180000       12.0110           0
      1243 MEMB     12       CHL1     H15A     HGA2     0.900000E-01   1.00800           0
      1244 MEMB     12       CHL1     H15B     HGA2     0.900000E-01   1.00800           0
      1245 MEMB     12       CHL1     C16      CRL2    -0.180000       12.0110           0
      1246 MEMB     12       CHL1     H16A     HGA2     0.900000E-01   1.00800           0
      1247 MEMB     12       CHL1     H16B     HGA2     0.900000E-01   1.00800           0
      1248 MEMB     12       CHL1     C17      CRL1    -0.900000E-01   12.0110           0
      1249 MEMB     12       CHL1     H17      HGA1     0.900000E-01   1.00800           0
      1250 MEMB     12       CHL1     C13      CRL1      0.00000       12.0110           0
      1251 MEMB     12       CHL1     C18      CTL3    -0.270000       12.0110           0
      1252 MEMB     12       CHL1     H18A     HAL3     0.900000E-01   1.00800           0
      1253 MEMB     12       CHL1     H18B     HAL3     0.900000E-01   1.00800           0
      1254 MEMB     12       CHL1     H18C     HAL3     0.900000E-01   1.00800           0
      1255 MEMB     12       CHL1     C12      CRL2    -0.180000       12.0110           0
      1256 MEMB     12       CHL1     H12A     HGA2     0.900000E-01   1.00800           0
      1257 MEMB     12       CHL1     H12B     HGA2     0.900000E-01   1.00800           0
      1258 MEMB     12       CHL1     C11      CRL2    -0.180000       12.0110           0
      1259 MEMB     12       CHL1     H11A     HGA2     0.900000E-01   1.00800           0
      1260 MEMB     12       CHL1     H11B     HGA2     0.900000E-01   1.00800           0
      1261 MEMB     12       CHL1     C9       CRL1    -0.900000E-01   12.0110           0
      1262 MEMB     12       CHL1     H9       HGA1     0.900000E-01   1.00800           0
      1263 MEMB     12       CHL1     C10      CRL1      0.00000       12.0110           0
      1264 MEMB     12       CHL1     C19      CTL3    -0.270000       12.0110           0
      1265 MEMB     12       CHL1     H19A     HAL3     0.900000E-01   1.00800           0
      1266 MEMB     12       CHL1     H19B     HAL3     0.900000E-01   1.00800           0
      1267 MEMB     12       CHL1     H19C     HAL3     0.900000E-01   1.00800           0
      1268 MEMB     12       CHL1     C1       CRL2    -0.180000       12.0110           0
      1269 MEMB     12       CHL1     H1A      HGA2     0.900000E-01   1.00800           0
      1270 MEMB     12       CHL1     H1B      HGA2     0.900000E-01   1.00800           0
      1271 MEMB     12       CHL1     C2       CRL2    -0.180000       12.0110           0
      1272 MEMB     12       CHL1     H2A      HGA2     0.900000E-01   1.00800           0
      1273 MEMB     12       CHL1     H2B      HGA2     0.900000E-01   1.00800           0
      1274 MEMB     12       CHL1     C20      CTL1    -0.900000E-01   12.0110           0
      1275 MEMB     12       CHL1     H20      HAL1     0.900000E-01   1.00800           0
      1276 MEMB     12       CHL1     C21      CTL3    -0.270000       12.0110           0
      1277 MEMB     12       CHL1     H21A     HAL3     0.900000E-01   1.00800           0
      1278 MEMB     12       CHL1     H21B     HAL3     0.900000E-01   1.00800           0
      1279 MEMB     12       CHL1     H21C     HAL3     0.900000E-01   1.00800           0
      1280 MEMB     12       CHL1     C22      CTL2    -0.180000       12.0110           0
      1281 MEMB     12       CHL1     H22A     HAL2     0.900000E-01   1.00800           0
      1282 MEMB     12       CHL1     H22B     HAL2     0.900000E-01   1.00800           0
      1283 MEMB     12       CHL1     C23      CTL2    -0.180000       12.0110           0
      1284 MEMB     12       CHL1     H23A     HAL2     0.900000E-01   1.00800           0
      1285 MEMB     12       CHL1     H23B     HAL2     0.900000E-01   1.00800           0
      1286 MEMB     12       CHL1     C24      CTL2    -0.180000       12.0110           0
      1287 MEMB     12       CHL1     H24A     HAL2     0.900000E-01   1.00800           0
      1288 MEMB     12       CHL1     H24B     HAL2     0.900000E-01   1.00800           0
      1289 MEMB     12       CHL1     C25      CTL1    -0.900000E-01   12.0110           0
      1290 MEMB     12       CHL1     H25      HAL1     0.900000E-01   1.00800           0
      1291 MEMB     12       CHL1     C26      CTL3    -0.270000       12.0110           0
      1292 MEMB     12       CHL1     H26A     HAL3     0.900000E-01   1.00800           0
      1293 MEMB     12       CHL1     H26B     HAL3     0.900000E-01   1.00800           0
      1294 MEMB     12       CHL1     H26C     HAL3     0.900000E-01   1.00800           0
      1295 MEMB     12       CHL1     C27      CTL3    -0.270000       12.0110           0
      1296 MEMB     12       CHL1     H27A     HAL3     0.900000E-01   1.00800           0
      1297 MEMB     12       CHL1     H27B     HAL3     0.900000E-01   1.00800           0
      1298 MEMB     12       CHL1     H27C     HAL3     0.900000E-01   1.00800           0
      1299 MEMB     13       CHL1     C3       CRL1     0.140000       12.0110           0
      1300 MEMB     13       CHL1     H3       HGA1     0.900000E-01   1.00800           0
      1301 MEMB     13       CHL1     O3       OHL     -0.660000       15.9994           0
      1302 MEMB     13       CHL1     H3'      HOL      0.430000       1.00800           0
      1303 MEMB     13       CHL1     C4       CRL2    -0.180000       12.0110           0
      1304 MEMB     13       CHL1     H4A      HGA2     0.900000E-01   1.00800           0
      1305 MEMB     13       CHL1     H4B      HGA2     0.900000E-01   1.00800           0
      1306 MEMB     13       CHL1     C5       CEL1      0.00000       12.0110           0
      1307 MEMB     13       CHL1     C6       CEL1    -0.150000       12.0110           0
      1308 MEMB     13       CHL1     H6       HEL1     0.150000       1.00800           0
      1309 MEMB     13       CHL1     C7       CRL2    -0.180000       12.0110           0
      1310 MEMB     13       CHL1     H7A      HGA2     0.900000E-01   1.00800           0
      1311 MEMB     13       CHL1     H7B      HGA2     0.900000E-01   1.00800           0
      1312 MEMB     13       CHL1     C8       CRL1    -0.900000E-01   12.0110           0
      1313 MEMB     13       CHL1     H8       HGA1     0.900000E-01   1.00800           0
      1314 MEMB     13       CHL1     C14      CRL1    -0.900000E-01   12.0110           0
      1315 MEMB     13       CHL1     H14      HGA1     0.900000E-01   1.00800           0
      1316 MEMB     13       CHL1     C15      CRL2    -0.180000       12.0110           0
      1317 MEMB     13       CHL1     H15A     HGA2     0.900000E-01   1.00800           0
      1318 MEMB     13       CHL1     H15B     HGA2     0.900000E-01   1.00800           0
      1319 MEMB     13       CHL1     C16      CRL2    -0.180000       12.0110           0
      1320 MEMB     13       CHL1     H16A     HGA2     0.900000E-01   1.00800           0
      1321 MEMB     13       CHL1     H16B     HGA2     0.900000E-01   1.00800           0
      1322 MEMB     13       CHL1     C17      CRL1    -0.900000E-01   12.0110           0
      1323 MEMB     13       CHL1     H17      HGA1     0.900000E-01   1.00800           0
      1324 MEMB     13       CHL1     C13      CRL1      0.00000       12.0110           0
      1325 MEMB     13       CHL1     C18      CTL3    -0.270000       12.0110           0
      1326 MEMB     13       CHL1     H18A     HAL3     0.900000E-01   1.00800           0
      1327 MEMB     13       CHL1     H18B     HAL3     0.900000E-01   1.00800           0
      1328 MEMB     13       CHL1     H18C     HAL3     0.900000E-01   1.00800           0
      1329 MEMB     13       CHL1     C12      CRL2    -0.180000       12.0110           0
      1330 MEMB     13       CHL1     H12A     HGA2     0.900000E-01   1.00800           0
      1331 MEMB     13       CHL1     H12B     HGA2     0.900000E-01   1.00800           0
      1332 MEMB     13       CHL1     C11      CRL2    -0.180000       12.0110           0
      1333 MEMB     13       CHL1     H11A     HGA2     0.900000E-01   1.00800           0
      1334 MEMB     13       CHL1     H11B     HGA2     0.900000E-01   1.00800           0
      1335 MEMB     13       CHL1     C9       CRL1    -0.900000E-01   12.0110           0
      1336 MEMB     13       CHL1     H9       HGA1     0.900000E-01   1.00800           0
      1337 MEMB     13       CHL1     C10      CRL1      0.00000       12.0110           0
      1338 MEMB     13       CHL1     C19      CTL3    -0.270000       12.0110           0
      1339 MEMB     13       CHL1     H19A     HAL3     0.900000E-01   1.00800           0
      1340 MEMB     13       CHL1     H19B     HAL3     0.900000E-01   1.00800           0
      1341 MEMB     13       CHL1     H19C     HAL3     0.900000E-01   1.00800           0
      1342 MEMB     13       CHL1     C1       CRL2    -0.180000       12.0110           0
      1343 MEMB     13       CHL1     H1A      HGA2     0.900000E-01   1.00800           0
      1344 MEMB     13       CHL1     H1B      HGA2     0.900000E-01   1.00800           0
      1345 MEMB     13       CHL1     C2       CRL2    -0.180000       12.0110           0
      1346 MEMB     13       CHL1     H2A      HGA2     0.900000E-01   1.00800           0
      1347 MEMB     13       CHL1     H2B      HGA2     0.900000E-01   1.00800           0
      1348 MEMB     13       CHL1     C20      CTL1    -0.900000E-01   12.0110           0
      1349 MEMB     13       CHL1     H20      HAL1     0.900000E-01   1.00800           0
      1350 MEMB     13       CHL1     C21      CTL3    -0.270000       12.0110           0
      1351 MEMB     13       CHL1     H21A     HAL3     0.900000E-01   1.00800           0
      1352 MEMB     13       CHL1     H21B     HAL3     0.900000E-01   1.00800           0
      1353 MEMB     13       CHL1     H21C     HAL3     0.900000E-01   1.00800           0
      1354 MEMB     13       CHL1     C22      CTL2    -0.180000       12.0110           0
      1355 MEMB     13       CHL1     H22A     HAL2     0.900000E-01   1.00800           0
      1356 MEMB     13       CHL1     H22B     HAL2     0.900000E-01   1.00800           0
      1357 MEMB     13       CHL1     C23      CTL2    -0.180000       12.0110           0
      1358 MEMB     13       CHL1     H23A     HAL2     0.900000E-01   1.00800           0
      1359 MEMB     13       CHL1     H23B     HAL2     0.900000E-01   1.00800           0
      1360 MEMB     13       CHL1     C24      CTL2    -0.180000       12.0110           0
      1361 MEMB     13       CHL1     H24A     HAL2     0.900000E-01   1.00800           0
      1362 MEMB     13       CHL1     H24B     HAL2     0.900000E-01   1.00800           0
      1363 MEMB     13       CHL1     C25      CTL1    -0.900000E-01   12.0110           0
      1364 MEMB     13       CHL1     H25      HAL1     0.900000E-01   1.00800           0
      1365 MEMB     13       CHL1     C26      CTL3    -0.270000       12.0110           0
      1366 MEMB     13       CHL1     H26A     HAL3     0.900000E-01   1.00800           0
      1367 MEMB     13       CHL1     H26B     HAL3     0.900000E-01   1.00800           0
      1368 MEMB     13       CHL1     H26C     HAL3     0.900000E-01   1.00800           0
      1369 MEMB     13       CHL1     C27      CTL3    -0.270000       12.0110           0
      1370 MEMB     13       CHL1     H27A     HAL3     0.900000E-01   1.00800           0
      1371 MEMB     13       CHL1     H27B     HAL3     0.900000E-01   1.00800           0
      1372 MEMB     13       CHL1     H27C     HAL3     0.900000E-01   1.00800           0
      1373 MEMB     14       CHL1     C3       CRL1     0.140000       12.0110           0
      1374 MEMB     14       CHL1     H3       HGA1     0.900000E-01   1.00800           0
      1375 MEMB     14       CHL1     O3       OHL     -0.660000       15.9994           0
      1376 MEMB     14       CHL1     H3'      HOL      0.430000       1.00800           0
      1377 MEMB     14       CHL1     C4       CRL2    -0.180000       12.0110           0
      1378 MEMB     14       CHL1     H4A      HGA2     0.900000E-01   1.00800           0
      1379 MEMB     14       CHL1     H4B      HGA2     0.900000E-01   1.00800           0
      1380 MEMB     14       CHL1     C5       CEL1      0.00000       12.0110           0
      1381 MEMB     14       CHL1     C6       CEL1    -0.150000       12.0110           0
      1382 MEMB     14       CHL1     H6       HEL1     0.150000       1.00800           0
      1383 MEMB     14       CHL1     C7       CRL2    -0.180000       12.0110           0
      1384 MEMB     14       CHL1     H7A      HGA2     0.900000E-01   1.00800           0
      1385 MEMB     14       CHL1     H7B      HGA2     0.900000E-01   1.00800           0
      1386 MEMB     14       CHL1     C8       CRL1    -0.900000E-01   12.0110           0
      1387 MEMB     14       CHL1     H8       HGA1     0.900000E-01   1.00800           0
      1388 MEMB     14       CHL1     C14      CRL1    -0.900000E-01   12.0110           0
      1389 MEMB     14       CHL1     H14      HGA1     0.900000E-01   1.00800           0
      1390 MEMB     14       CHL1     C15      CRL2    -0.180000       12.0110           0
      1391 MEMB     14       CHL1     H15A     HGA2     0.900000E-01   1.00800           0
      1392 MEMB     14       CHL1     H15B     HGA2     0.900000E-01   1.00800           0
      1393 MEMB     14       CHL1     C16      CRL2    -0.180000       12.0110           0
      1394 MEMB     14       CHL1     H16A     HGA2     0.900000E-01   1.00800           0
      1395 MEMB     14       CHL1     H16B     HGA2     0.900000E-01   1.00800           0
      1396 MEMB     14       CHL1     C17      CRL1    -0.900000E-01   12.0110           0
      1397 MEMB     14       CHL1     H17      HGA1     0.900000E-01   1.00800           0
      1398 MEMB     14       CHL1     C13      CRL1      0.00000       12.0110           0
      1399 MEMB     14       CHL1     C18      CTL3    -0.270000       12.0110           0
      1400 MEMB     14       CHL1     H18A     HAL3     0.900000E-01   1.00800           0
      1401 MEMB     14       CHL1     H18B     HAL3     0.900000E-01   1.00800           0
      1402 MEMB     14       CHL1     H18C     HAL3     0.900000E-01   1.00800           0
      1403 MEMB     14       CHL1     C12      CRL2    -0.180000       12.0110           0
      1404 MEMB     14       CHL1     H12A     HGA2     0.900000E-01   1.00800           0
      1405 MEMB     14       CHL1     H12B     HGA2     0.900000E-01   1.00800           0
      1406 MEMB     14       CHL1     C11      CRL2    -0.180000       12.0110           0
      1407 MEMB     14       CHL1     H11A     HGA2     0.900000E-01   1.00800           0
      1408 MEMB     14       CHL1     H11B     HGA2     0.900000E-01   1.00800           0
      1409 MEMB     14       CHL1     C9       CRL1    -0.900000E-01   12.0110           0
      1410 MEMB     14       CHL1     H9       HGA1     0.900000E-01   1.00800           0
      1411 MEMB     14       CHL1     C10      CRL1      0.00000       12.0110           0
      1412 MEMB     14       CHL1     C19      CTL3    -0.270000       12.0110           0
      1413 MEMB     14       CHL1     H19A     HAL3     0.900000E-01   1.00800           0
      1414 MEMB     14       CHL1     H19B     HAL3     0.900000E-01   1.00800           0
      1415 MEMB     14       CHL1     H19C     HAL3     0.900000E-01   1.00800           0
      1416 MEMB     14       CHL1     C1       CRL2    -0.180000       12.0110           0
      1417 MEMB     14       CHL1     H1A      HGA2     0.900000E-01   1.00800           0
      1418 MEMB     14       CHL1     H1B      HGA2     0.900000E-01   1.00800           0
      1419 MEMB     14       CHL1     C2       CRL2    -0.180000       12.0110           0
      1420 MEMB     14       CHL1     H2A      HGA2     0.900000E-01   1.00800           0
      1421 MEMB     14       CHL1     H2B      HGA2     0.900000E-01   1.00800           0
      1422 MEMB     14       CHL1     C20      CTL1    -0.900000E-01   12.0110           0
      1423 MEMB     14       CHL1     H20      HAL1     0.900000E-01   1.00800           0
      1424 MEMB     14       CHL1     C21      CTL3    -0.270000       12.0110           0
      1425 MEMB     14       CHL1     H21A     HAL3     0.900000E-01   1.00800           0
      1426 MEMB     14       CHL1     H21B     HAL3     0.900000E-01   1.00800           0
      1427 MEMB     14       CHL1     H21C     HAL3     0.900000E-01   1.00800           0
      1428 MEMB     14       CHL1     C22      CTL2    -0.180000       12.0110           0
      1429 MEMB     14       CHL1     H22A     HAL2     0.900000E-01   1.00800           0
      1430 MEMB     14       CHL1     H22B     HAL2     0.900000E-01   1.00800           0
      1431 MEMB     14       CHL1     C23      CTL2    -0.180000       12.0110           0
      1432 MEMB     14       CHL1     H23A     HAL2     0.900000E-01   1.00800           0
      1433 MEMB     14       CHL1     H23B     HAL2     0.900000E-01   1.00800           0
      1434 MEMB     14       CHL1     C24      CTL2    -0.180000       12.0110           0
      1435 MEMB     14       CHL1     H24A     HAL2     0.900000E-01   1.00800           0
      1436 MEMB     14       CHL1     H24B     HAL2     0.900000E-01   1.00800           0
      1437 MEMB     14       CHL1     C25      CTL1    -0.900000E-01   12.0110           0
      1438 MEMB     14       CHL1     H25      HAL1     0.900000E-01   1.00800           0
      1439 MEMB     14       CHL1     C26      CTL3    -0.270000       12.0110           0
      1440 MEMB     14       CHL1     H26A     HAL3     0.900000E-01   1.00800           0
      1441 MEMB     14       CHL1     H26B     HAL3     0.900000E-01   1.00800           0
      1442 MEMB     14       CHL1     H26C     HAL3     0.900000E-01   1.00800           0
      1443 MEMB     14       CHL1     C27      CTL3    -0.270000       12.0110           0
      1444 MEMB     14       CHL1     H27A     HAL3     0.900000E-01   1.00800           0
      1445 MEMB     14       CHL1     H27B     HAL3     0.900000E-01   1.00800           0
      1446 MEMB     14       CHL1     H27C     HAL3     0.900000E-01   1.00800           0
      1447 MEMB     15       OSM      N        NTL     -0.600000       14.0070           0
      1448 MEMB     15       OSM      C15      CTL5    -0.350000       12.0110           0
      1449 MEMB     15       OSM      H15A     HL       0.250000       1.00800           0
      1450 MEMB     15       OSM      H15B     HL       0.250000       1.00800           0
      1451 MEMB     15       OSM      H15C     HL       0.250000       1.00800           0
      1452 MEMB     15       OSM      C14      CTL5    -0.350000       12.0110           0
      1453 MEMB     15       OSM      H14A     HL       0.250000       1.00800           0
      1454 MEMB     15       OSM      H14B     HL       0.250000       1.00800           0
      1455 MEMB     15       OSM      H14C     HL       0.250000       1.00800           0
      1456 MEMB     15       OSM      C13      CTL5    -0.350000       12.0110           0
      1457 MEMB     15       OSM      H13A     HL       0.250000       1.00800           0
      1458 MEMB     15       OSM      H13B     HL       0.250000       1.00800           0
      1459 MEMB     15       OSM      H13C     HL       0.250000       1.00800           0
      1460 MEMB     15       OSM      C12      CTL2    -0.100000       12.0110           0
      1461 MEMB     15       OSM      H12A     HL       0.250000       1.00800           0
      1462 MEMB     15       OSM      H12B     HL       0.250000       1.00800           0
      1463 MEMB     15       OSM      C11      CTL2    -0.800000E-01   12.0110           0
      1464 MEMB     15       OSM      H11A     HAL2     0.900000E-01   1.00800           0
      1465 MEMB     15       OSM      H11B     HAL2     0.900000E-01   1.00800           0
      1466 MEMB     15       OSM      P        PL        1.50000       30.9740           0
      1467 MEMB     15       OSM      O13      O2L     -0.780000       15.9994           0
      1468 MEMB     15       OSM      O14      O2L     -0.780000       15.9994           0
      1469 MEMB     15       OSM      O11      OSLP    -0.570000       15.9994           0
      1470 MEMB     15       OSM      O12      OSLP    -0.570000       15.9994           0
      1471 MEMB     15       OSM      C1S      CTL2    -0.800000E-01   12.0110           0
      1472 MEMB     15       OSM      H1S      HAL2     0.900000E-01   1.00800           0
      1473 MEMB     15       OSM      H1T      HAL2     0.900000E-01   1.00800           0
      1474 MEMB     15       OSM      NF       NHL     -0.700000       14.0070           0
      1475 MEMB     15       OSM      HNF      H        0.350000       1.00800           0
      1476 MEMB     15       OSM      C2S      CTL1     0.300000       12.0110           0
      1477 MEMB     15       OSM      H2S      HAL1     0.500000E-01   1.00800           0
      1478 MEMB     15       OSM      C3S      CTO1     0.500000       12.0110           0
      1479 MEMB     15       OSM      H3S      HAL1    -0.110000       1.00800           0
      1480 MEMB     15       OSM      O3       OHL     -0.690000       15.9994           0
      1481 MEMB     15       OSM      HO3      HOL      0.300000       1.00800           0
      1482 MEMB     15       OSM      C4S      CEL3    -0.150000       12.0110           0
      1483 MEMB     15       OSM      H4S      HEL1     0.150000       1.00800           0
      1484 MEMB     15       OSM      C5S      CEL3    -0.150000       12.0110           0
      1485 MEMB     15       OSM      H5S      HEL1     0.150000       1.00800           0
      1486 MEMB     15       OSM      C6S      CTL2    -0.180000       12.0110           0
      1487 MEMB     15       OSM      H6S      HAL2     0.900000E-01   1.00800           0
      1488 MEMB     15       OSM      H6T      HAL2     0.900000E-01   1.00800           0
      1489 MEMB     15       OSM      C7S      CTL2    -0.180000       12.0110           0
      1490 MEMB     15       OSM      H7S      HAL2     0.900000E-01   1.00800           0
      1491 MEMB     15       OSM      H7T      HAL2     0.900000E-01   1.00800           0
      1492 MEMB     15       OSM      C8S      CTL2    -0.180000       12.0110           0
      1493 MEMB     15       OSM      H8S      HAL2     0.900000E-01   1.00800           0
      1494 MEMB     15       OSM      H8T      HAL2     0.900000E-01   1.00800           0
      1495 MEMB     15       OSM      C9S      CTL2    -0.180000       12.0110           0
      1496 MEMB     15       OSM      H9S      HAL2     0.900000E-01   1.00800           0
      1497 MEMB     15       OSM      H9T      HAL2     0.900000E-01   1.00800           0
      1498 MEMB     15       OSM      C10S     CTL2    -0.180000       12.0110           0
      1499 MEMB     15       OSM      H10S     HAL2     0.900000E-01   1.00800           0
      1500 MEMB     15       OSM      H10T     HAL2     0.900000E-01   1.00800           0
      1501 MEMB     15       OSM      C11S     CTL2    -0.180000       12.0110           0
      1502 MEMB     15       OSM      H11S     HAL2     0.900000E-01   1.00800           0
      1503 MEMB     15       OSM      H11T     HAL2     0.900000E-01   1.00800           0
      1504 MEMB     15       OSM      C12S     CTL2    -0.180000       12.0110           0
      1505 MEMB     15       OSM      H12S     HAL2     0.900000E-01   1.00800           0
      1506 MEMB     15       OSM      H12T     HAL2     0.900000E-01   1.00800           0
      1507 MEMB     15       OSM      C13S     CTL2    -0.180000       12.0110           0
      1508 MEMB     15       OSM      H13S     HAL2     0.900000E-01   1.00800           0
      1509 MEMB     15       OSM      H13T     HAL2     0.900000E-01   1.00800           0
      1510 MEMB     15       OSM      C14S     CTL2    -0.180000       12.0110           0
      1511 MEMB     15       OSM      H14S     HAL2     0.900000E-01   1.00800           0
      1512 MEMB     15       OSM      H14T     HAL2     0.900000E-01   1.00800           0
      1513 MEMB     15       OSM      C15S     CTL2    -0.180000       12.0110           0
      1514 MEMB     15       OSM      H15S     HAL2     0.900000E-01   1.00800           0
      1515 MEMB     15       OSM      H15T     HAL2     0.900000E-01   1.00800           0
      1516 MEMB     15       OSM      C16S     CTL2    -0.180000       12.0110           0
      1517 MEMB     15       OSM      H16S     HAL2     0.900000E-01   1.00800           0
      1518 MEMB     15       OSM      H16T     HAL2     0.900000E-01   1.00800           0
      1519 MEMB     15       OSM      C17S     CTL2    -0.180000       12.0110           0
      1520 MEMB     15       OSM      H17S     HAL2     0.900000E-01   1.00800           0
      1521 MEMB     15       OSM      H17T     HAL2     0.900000E-01   1.00800           0
      1522 MEMB     15       OSM      C18S     CTL3    -0.270000       12.0110           0
      1523 MEMB     15       OSM      H18S     HAL3     0.900000E-01   1.00800           0
      1524 MEMB     15       OSM      H18T     HAL3     0.900000E-01   1.00800           0
      1525 MEMB     15       OSM      H18U     HAL3     0.900000E-01   1.00800           0
      1526 MEMB     15       OSM      C1F      C        0.550000       12.0110           0
      1527 MEMB     15       OSM      OF       O       -0.600000       15.9994           0
      1528 MEMB     15       OSM      C2F      CTL2    -0.700000E-01   12.0110           0
      1529 MEMB     15       OSM      H2F      HAL2     0.600000E-01   1.00800           0
      1530 MEMB     15       OSM      H2G      HAL2     0.600000E-01   1.00800           0
      1531 MEMB     15       OSM      C3F      CTL2    -0.180000       12.0110           0
      1532 MEMB     15       OSM      H3F      HAL2     0.900000E-01   1.00800           0
      1533 MEMB     15       OSM      H3G      HAL2     0.900000E-01   1.00800           0
      1534 MEMB     15       OSM      C4F      CTL2    -0.180000       12.0110           0
      1535 MEMB     15       OSM      H4F      HAL2     0.900000E-01   1.00800           0
      1536 MEMB     15       OSM      H4G      HAL2     0.900000E-01   1.00800           0
      1537 MEMB     15       OSM      C5F      CTL2    -0.180000       12.0110           0
      1538 MEMB     15       OSM      H5F      HAL2     0.900000E-01   1.00800           0
      1539 MEMB     15       OSM      H5G      HAL2     0.900000E-01   1.00800           0
      1540 MEMB     15       OSM      C6F      CTL2    -0.180000       12.0110           0
      1541 MEMB     15       OSM      H6F      HAL2     0.900000E-01   1.00800           0
      1542 MEMB     15       OSM      H6G      HAL2     0.900000E-01   1.00800           0
      1543 MEMB     15       OSM      C7F      CTL2    -0.180000       12.0110           0
      1544 MEMB     15       OSM      H7F      HAL2     0.900000E-01   1.00800           0
      1545 MEMB     15       OSM      H7G      HAL2     0.900000E-01   1.00800           0
      1546 MEMB     15       OSM      C8F      CTL2    -0.180000       12.0110           0
      1547 MEMB     15       OSM      H8F      HAL2     0.900000E-01   1.00800           0
      1548 MEMB     15       OSM      H8G      HAL2     0.900000E-01   1.00800           0
      1549 MEMB     15       OSM      C9F      CEL1    -0.150000       12.0110           0
      1550 MEMB     15       OSM      H9F      HEL1     0.150000       1.00800           0
      1551 MEMB     15       OSM      C10F     CEL1    -0.150000       12.0110           0
      1552 MEMB     15       OSM      H10F     HEL1     0.150000       1.00800           0
      1553 MEMB     15       OSM      C11F     CTL2    -0.180000       12.0110           0
      1554 MEMB     15       OSM      H11F     HAL2     0.900000E-01   1.00800           0
      1555 MEMB     15       OSM      H11G     HAL2     0.900000E-01   1.00800           0
      1556 MEMB     15       OSM      C12F     CTL2    -0.180000       12.0110           0
      1557 MEMB     15       OSM      H12F     HAL2     0.900000E-01   1.00800           0
      1558 MEMB     15       OSM      H12G     HAL2     0.900000E-01   1.00800           0
      1559 MEMB     15       OSM      C13F     CTL2    -0.180000       12.0110           0
      1560 MEMB     15       OSM      H13F     HAL2     0.900000E-01   1.00800           0
      1561 MEMB     15       OSM      H13G     HAL2     0.900000E-01   1.00800           0
      1562 MEMB     15       OSM      C14F     CTL2    -0.180000       12.0110           0
      1563 MEMB     15       OSM      H14F     HAL2     0.900000E-01   1.00800           0
      1564 MEMB     15       OSM      H14G     HAL2     0.900000E-01   1.00800           0
      1565 MEMB     15       OSM      C15F     CTL2    -0.180000       12.0110           0
      1566 MEMB     15       OSM      H15F     HAL2     0.900000E-01   1.00800           0
      1567 MEMB     15       OSM      H15G     HAL2     0.900000E-01   1.00800           0
      1568 MEMB     15       OSM      C16F     CTL2    -0.180000       12.0110           0
      1569 MEMB     15       OSM      H16F     HAL2     0.900000E-01   1.00800           0
      1570 MEMB     15       OSM      H16G     HAL2     0.900000E-01   1.00800           0
      1571 MEMB     15       OSM      C17F     CTL2    -0.180000       12.0110           0
      1572 MEMB     15       OSM      H17F     HAL2     0.900000E-01   1.00800           0
      1573 MEMB     15       OSM      H17G     HAL2     0.900000E-01   1.00800           0
      1574 MEMB     15       OSM      C18F     CTL3    -0.270000       12.0110           0
      1575 MEMB     15       OSM      H18F     HAL3     0.900000E-01   1.00800           0
      1576 MEMB     15       OSM      H18G     HAL3     0.900000E-01   1.00800           0
      1577 MEMB     15       OSM      H18H     HAL3     0.900000E-01   1.00800           0
      1578 MEMB     16       CHL1     C3       CRL1     0.140000       12.0110           0
      1579 MEMB     16       CHL1     H3       HGA1     0.900000E-01   1.00800           0
      1580 MEMB     16       CHL1     O3       OHL     -0.660000       15.9994           0
      1581 MEMB     16       CHL1     H3'      HOL      0.430000       1.00800           0
      1582 MEMB     16       CHL1     C4       CRL2    -0.180000       12.0110           0
      1583 MEMB     16       CHL1     H4A      HGA2     0.900000E-01   1.00800           0
      1584 MEMB     16       CHL1     H4B      HGA2     0.900000E-01   1.00800           0
      1585 MEMB     16       CHL1     C5       CEL1      0.00000       12.0110           0
      1586 MEMB     16       CHL1     C6       CEL1    -0.150000       12.0110           0
      1587 MEMB     16       CHL1     H6       HEL1     0.150000       1.00800           0
      1588 MEMB     16       CHL1     C7       CRL2    -0.180000       12.0110           0
      1589 MEMB     16       CHL1     H7A      HGA2     0.900000E-01   1.00800           0
      1590 MEMB     16       CHL1     H7B      HGA2     0.900000E-01   1.00800           0
      1591 MEMB     16       CHL1     C8       CRL1    -0.900000E-01   12.0110           0
      1592 MEMB     16       CHL1     H8       HGA1     0.900000E-01   1.00800           0
      1593 MEMB     16       CHL1     C14      CRL1    -0.900000E-01   12.0110           0
      1594 MEMB     16       CHL1     H14      HGA1     0.900000E-01   1.00800           0
      1595 MEMB     16       CHL1     C15      CRL2    -0.180000       12.0110           0
      1596 MEMB     16       CHL1     H15A     HGA2     0.900000E-01   1.00800           0
      1597 MEMB     16       CHL1     H15B     HGA2     0.900000E-01   1.00800           0
      1598 MEMB     16       CHL1     C16      CRL2    -0.180000       12.0110           0
      1599 MEMB     16       CHL1     H16A     HGA2     0.900000E-01   1.00800           0
      1600 MEMB     16       CHL1     H16B     HGA2     0.900000E-01   1.00800           0
      1601 MEMB     16       CHL1     C17      CRL1    -0.900000E-01   12.0110           0
      1602 MEMB     16       CHL1     H17      HGA1     0.900000E-01   1.00800           0
      1603 MEMB     16       CHL1     C13      CRL1      0.00000       12.0110           0
      1604 MEMB     16       CHL1     C18      CTL3    -0.270000       12.0110           0
      1605 MEMB     16       CHL1     H18A     HAL3     0.900000E-01   1.00800           0
      1606 MEMB     16       CHL1     H18B     HAL3     0.900000E-01   1.00800           0
      1607 MEMB     16       CHL1     H18C     HAL3     0.900000E-01   1.00800           0
      1608 MEMB     16       CHL1     C12      CRL2    -0.180000       12.0110           0
      1609 MEMB     16       CHL1     H12A     HGA2     0.900000E-01   1.00800           0
      1610 MEMB     16       CHL1     H12B     HGA2     0.900000E-01   1.00800           0
      1611 MEMB     16       CHL1     C11      CRL2    -0.180000       12.0110           0
      1612 MEMB     16       CHL1     H11A     HGA2     0.900000E-01   1.00800           0
      1613 MEMB     16       CHL1     H11B     HGA2     0.900000E-01   1.00800           0
      1614 MEMB     16       CHL1     C9       CRL1    -0.900000E-01   12.0110           0
      1615 MEMB     16       CHL1     H9       HGA1     0.900000E-01   1.00800           0
      1616 MEMB     16       CHL1     C10      CRL1      0.00000       12.0110           0
      1617 MEMB     16       CHL1     C19      CTL3    -0.270000       12.0110           0
      1618 MEMB     16       CHL1     H19A     HAL3     0.900000E-01   1.00800           0
      1619 MEMB     16       CHL1     H19B     HAL3     0.900000E-01   1.00800           0
      1620 MEMB     16       CHL1     H19C     HAL3     0.900000E-01   1.00800           0
      1621 MEMB     16       CHL1     C1       CRL2    -0.180000       12.0110           0
      1622 MEMB     16       CHL1     H1A      HGA2     0.900000E-01   1.00800           0
      1623 MEMB     16       CHL1     H1B      HGA2     0.900000E-01   1.00800           0
      1624 MEMB     16       CHL1     C2       CRL2    -0.180000       12.0110           0
      1625 MEMB     16       CHL1     H2A      HGA2     0.900000E-01   1.00800           0
      1626 MEMB     16       CHL1     H2B      HGA2     0.900000E-01   1.00800           0
      1627 MEMB     16       CHL1     C20      CTL1    -0.900000E-01   12.0110           0
      1628 MEMB     16       CHL1     H20      HAL1     0.900000E-01   1.00800           0
      1629 MEMB     16       CHL1     C21      CTL3    -0.270000       12.0110           0
      1630 MEMB     16       CHL1     H21A     HAL3     0.900000E-01   1.00800           0
      1631 MEMB     16       CHL1     H21B     HAL3     0.900000E-01   1.00800           0
      1632 MEMB     16       CHL1     H21C     HAL3     0.900000E-01   1.00800           0
      1633 MEMB     16       CHL1     C22      CTL2    -0.180000       12.0110           0
      1634 MEMB     16       CHL1     H22A     HAL2     0.900000E-01   1.00800           0
      1635 MEMB     16       CHL1     H22B     HAL2     0.900000E-01   1.00800           0
      1636 MEMB     16       CHL1     C23      CTL2    -0.180000       12.0110           0
      1637 MEMB     16       CHL1     H23A     HAL2     0.900000E-01   1.00800           0
      1638 MEMB     16       CHL1     H23B     HAL2     0.900000E-01   1.00800           0
      1639 MEMB     16       CHL1     C24      CTL2    -0.180000       12.0110           0
      1640 MEMB     16       CHL1     H24A     HAL2     0.900000E-01   1.00800           0
      1641 MEMB     16       CHL1     H24B     HAL2     0.900000E-01   1.00800           0
      1642 MEMB     16       CHL1     C25      CTL1    -0.900000E-01   12.0110           0
      1643 MEMB     16       CHL1     H25      HAL1     0.900000E-01   1.00800           0
      1644 MEMB     16       CHL1     C26      CTL3    -0.270000       12.0110           0
      1645 MEMB     16       CHL1     H26A     HAL3     0.900000E-01   1.00800           0
      1646 MEMB     16       CHL1     H26B     HAL3     0.900000E-01   1.00800           0
      1647 MEMB     16       CHL1     H26C     HAL3     0.900000E-01   1.00800           0
      1648 MEMB     16       CHL1     C27      CTL3    -0.270000       12.0110           0
      1649 MEMB     16       CHL1     H27A     HAL3     0.900000E-01   1.00800           0
      1650 MEMB     16       CHL1     H27B     HAL3     0.900000E-01   1.00800           0
      1651 MEMB     16       CHL1     H27C     HAL3     0.900000E-01   1.00800           0
      1652 MEMB     17       OSM      N        NTL     -0.600000       14.0070           0
      1653 MEMB     17       OSM      C15      CTL5    -0.350000       12.0110           0
      1654 MEMB     17       OSM      H15A     HL       0.250000       1.00800           0
      1655 MEMB     17       OSM      H15B     HL       0.250000       1.00800           0
      1656 MEMB     17       OSM      H15C     HL       0.250000       1.00800           0
      1657 MEMB     17       OSM      C14      CTL5    -0.350000       12.0110           0
      1658 MEMB     17       OSM      H14A     HL       0.250000       1.00800           0
      1659 MEMB     17       OSM      H14B     HL       0.250000       1.00800           0
      1660 MEMB     17       OSM      H14C     HL       0.250000       1.00800           0
      1661 MEMB     17       OSM      C13      CTL5    -0.350000       12.0110           0
      1662 MEMB     17       OSM      H13A     HL       0.250000       1.00800           0
      1663 MEMB     17       OSM      H13B     HL       0.250000       1.00800           0
      1664 MEMB     17       OSM      H13C     HL       0.250000       1.00800           0
      1665 MEMB     17       OSM      C12      CTL2    -0.100000       12.0110           0
      1666 MEMB     17       OSM      H12A     HL       0.250000       1.00800           0
      1667 MEMB     17       OSM      H12B     HL       0.250000       1.00800           0
      1668 MEMB     17       OSM      C11      CTL2    -0.800000E-01   12.0110           0
      1669 MEMB     17       OSM      H11A     HAL2     0.900000E-01   1.00800           0
      1670 MEMB     17       OSM      H11B     HAL2     0.900000E-01   1.00800           0
      1671 MEMB     17       OSM      P        PL        1.50000       30.9740           0
      1672 MEMB     17       OSM      O13      O2L     -0.780000       15.9994           0
      1673 MEMB     17       OSM      O14      O2L     -0.780000       15.9994           0
      1674 MEMB     17       OSM      O11      OSLP    -0.570000       15.9994           0
      1675 MEMB     17       OSM      O12      OSLP    -0.570000       15.9994           0
      1676 MEMB     17       OSM      C1S      CTL2    -0.800000E-01   12.0110           0
      1677 MEMB     17       OSM      H1S      HAL2     0.900000E-01   1.00800           0
      1678 MEMB     17       OSM      H1T      HAL2     0.900000E-01   1.00800           0
      1679 MEMB     17       OSM      NF       NHL     -0.700000       14.0070           0
      1680 MEMB     17       OSM      HNF      H        0.350000       1.00800           0
      1681 MEMB     17       OSM      C2S      CTL1     0.300000       12.0110           0
      1682 MEMB     17       OSM      H2S      HAL1     0.500000E-01   1.00800           0
      1683 MEMB     17       OSM      C3S      CTO1     0.500000       12.0110           0
      1684 MEMB     17       OSM      H3S      HAL1    -0.110000       1.00800           0
      1685 MEMB     17       OSM      O3       OHL     -0.690000       15.9994           0
      1686 MEMB     17       OSM      HO3      HOL      0.300000       1.00800           0
      1687 MEMB     17       OSM      C4S      CEL3    -0.150000       12.0110           0
      1688 MEMB     17       OSM      H4S      HEL1     0.150000       1.00800           0
      1689 MEMB     17       OSM      C5S      CEL3    -0.150000       12.0110           0
      1690 MEMB     17       OSM      H5S      HEL1     0.150000       1.00800           0
      1691 MEMB     17       OSM      C6S      CTL2    -0.180000       12.0110           0
      1692 MEMB     17       OSM      H6S      HAL2     0.900000E-01   1.00800           0
      1693 MEMB     17       OSM      H6T      HAL2     0.900000E-01   1.00800           0
      1694 MEMB     17       OSM      C7S      CTL2    -0.180000       12.0110           0
      1695 MEMB     17       OSM      H7S      HAL2     0.900000E-01   1.00800           0
      1696 MEMB     17       OSM      H7T      HAL2     0.900000E-01   1.00800           0
      1697 MEMB     17       OSM      C8S      CTL2    -0.180000       12.0110           0
      1698 MEMB     17       OSM      H8S      HAL2     0.900000E-01   1.00800           0
      1699 MEMB     17       OSM      H8T      HAL2     0.900000E-01   1.00800           0
      1700 MEMB     17       OSM      C9S      CTL2    -0.180000       12.0110           0
      1701 MEMB     17       OSM      H9S      HAL2     0.900000E-01   1.00800           0
      1702 MEMB     17       OSM      H9T      HAL2     0.900000E-01   1.00800           0
      1703 MEMB     17       OSM      C10S     CTL2    -0.180000       12.0110           0
      1704 MEMB     17       OSM      H10S     HAL2     0.900000E-01   1.00800           0
      1705 MEMB     17       OSM      H10T     HAL2     0.900000E-01   1.00800           0
      1706 MEMB     17       OSM      C11S     CTL2    -0.180000       12.0110           0
      1707 MEMB     17       OSM      H11S     HAL2     0.900000E-01   1.00800           0
      1708 MEMB     17       OSM      H11T     HAL2     0.900000E-01   1.00800           0
      1709 MEMB     17       OSM      C12S     CTL2    -0.180000       12.0110           0
      1710 MEMB     17       OSM      H12S     HAL2     0.900000E-01   1.00800           0
      1711 MEMB     17       OSM      H12T     HAL2     0.900000E-01   1.00800           0
      1712 MEMB     17       OSM      C13S     CTL2    -0.180000       12.0110           0
      1713 MEMB     17       OSM      H13S     HAL2     0.900000E-01   1.00800           0
      1714 MEMB     17       OSM      H13T     HAL2     0.900000E-01   1.00800           0
      1715 MEMB     17       OSM      C14S     CTL2    -0.180000       12.0110           0
      1716 MEMB     17       OSM      H14S     HAL2     0.900000E-01   1.00800           0
      1717 MEMB     17       OSM      H14T     HAL2     0.900000E-01   1.00800           0
      1718 MEMB     17       OSM      C15S     CTL2    -0.180000       12.0110           0
      1719 MEMB     17       OSM      H15S     HAL2     0.900000E-01   1.00800           0
      1720 MEMB     17       OSM      H15T     HAL2     0.900000E-01   1.00800           0
      1721 MEMB     17       OSM      C16S     CTL2    -0.180000       12.0110           0
      1722 MEMB     17       OSM      H16S     HAL2     0.900000E-01   1.00800           0
      1723 MEMB     17       OSM      H16T     HAL2     0.900000E-01   1.00800           0
      1724 MEMB     17       OSM      C17S     CTL2    -0.180000       12.0110           0
      1725 MEMB     17       OSM      H17S     HAL2     0.900000E-01   1.00800           0
      1726 MEMB     17       OSM      H17T     HAL2     0.900000E-01   1.00800           0
      1727 MEMB     17       OSM      C18S     CTL3    -0.270000       12.0110           0
      1728 MEMB     17       OSM      H18S     HAL3     0.900000E-01   1.00800           0
      1729 MEMB     17       OSM      H18T     HAL3     0.900000E-01   1.00800           0
      1730 MEMB     17       OSM      H18U     HAL3     0.900000E-01   1.00800           0
      1731 MEMB     17       OSM      C1F      C        0.550000       12.0110           0
      1732 MEMB     17       OSM      OF       O       -0.600000       15.9994           0
      1733 MEMB     17       OSM      C2F      CTL2    -0.700000E-01   12.0110           0
      1734 MEMB     17       OSM      H2F      HAL2     0.600000E-01   1.00800           0
      1735 MEMB     17       OSM      H2G      HAL2     0.600000E-01   1.00800           0
      1736 MEMB     17       OSM      C3F      CTL2    -0.180000       12.0110           0
      1737 MEMB     17       OSM      H3F      HAL2     0.900000E-01   1.00800           0
      1738 MEMB     17       OSM      H3G      HAL2     0.900000E-01   1.00800           0
      1739 MEMB     17       OSM      C4F      CTL2    -0.180000       12.0110           0
      1740 MEMB     17       OSM      H4F      HAL2     0.900000E-01   1.00800           0
      1741 MEMB     17       OSM      H4G      HAL2     0.900000E-01   1.00800           0
      1742 MEMB     17       OSM      C5F      CTL2    -0.180000       12.0110           0
      1743 MEMB     17       OSM      H5F      HAL2     0.900000E-01   1.00800           0
      1744 MEMB     17       OSM      H5G      HAL2     0.900000E-01   1.00800           0
      1745 MEMB     17       OSM      C6F      CTL2    -0.180000       12.0110           0
      1746 MEMB     17       OSM      H6F      HAL2     0.900000E-01   1.00800           0
      1747 MEMB     17       OSM      H6G      HAL2     0.900000E-01   1.00800           0
      1748 MEMB     17       OSM      C7F      CTL2    -0.180000       12.0110           0
      1749 MEMB     17       OSM      H7F      HAL2     0.900000E-01   1.00800           0
      1750 MEMB     17       OSM      H7G      HAL2     0.900000E-01   1.00800           0
      1751 MEMB     17       OSM      C8F      CTL2    -0.180000       12.0110           0
      1752 MEMB     17       OSM      H8F      HAL2     0.900000E-01   1.00800           0
      1753 MEMB     17       OSM      H8G      HAL2     0.900000E-01   1.00800           0
      1754 MEMB     17       OSM      C9F      CEL1    -0.150000       12.0110           0
      1755 MEMB     17       OSM      H9F      HEL1     0.150000       1.00800           0
      1756 MEMB     17       OSM      C10F     CEL1    -0.150000       12.0110           0
      1757 MEMB     17       OSM      H10F     HEL1     0.150000       1.00800           0
      1758 MEMB     17       OSM      C11F     CTL2    -0.180000       12.0110           0
      1759 MEMB     17       OSM      H11F     HAL2     0.900000E-01   1.00800           0
      1760 MEMB     17       OSM      H11G     HAL2     0.900000E-01   1.00800           0
      1761 MEMB     17       OSM      C12F     CTL2    -0.180000       12.0110           0
      1762 MEMB     17       OSM      H12F     HAL2     0.900000E-01   1.00800           0
      1763 MEMB     17       OSM      H12G     HAL2     0.900000E-01   1.00800           0
      1764 MEMB     17       OSM      C13F     CTL2    -0.180000       12.0110           0
      1765 MEMB     17       OSM      H13F     HAL2     0.900000E-01   1.00800           0
      1766 MEMB     17       OSM      H13G     HAL2     0.900000E-01   1.00800           0
      1767 MEMB     17       OSM      C14F     CTL2    -0.180000       12.0110           0
      1768 MEMB     17       OSM      H14F     HAL2     0.900000E-01   1.00800           0
      1769 MEMB     17       OSM      H14G     HAL2     0.900000E-01   1.00800           0
      1770 MEMB     17       OSM      C15F     CTL2    -0.180000       12.0110           0
      1771 MEMB     17       OSM      H15F     HAL2     0.900000E-01   1.00800           0
      1772 MEMB     17       OSM      H15G     HAL2     0.900000E-01   1.00800           0
      1773 MEMB     17       OSM      C16F     CTL2    -0.180000       12.0110           0
      1774 MEMB     17       OSM      H16F     HAL2     0.900000E-01   1.00800           0
      1775 MEMB     17       OSM      H16G     HAL2     0.900000E-01   1.00800           0
      1776 MEMB     17       OSM      C17F     CTL2    -0.180000       12.0110           0
      1777 MEMB     17       OSM      H17F     HAL2     0.900000E-01   1.00800           0
      1778 MEMB     17       OSM      H17G     HAL2     0.900000E-01   1.00800           0
      1779 MEMB     17       OSM      C18F     CTL3    -0.270000       12.0110           0
      1780 MEMB     17       OSM      H18F     HAL3     0.900000E-01   1.00800           0
      1781 MEMB     17       OSM      H18G     HAL3     0.900000E-01   1.00800           0
      1782 MEMB     17       OSM      H18H     HAL3     0.900000E-01   1.00800           0
      1783 MEMB     18       SOPE     N        NH3L    -0.300000       14.0070           0
      1784 MEMB     18       SOPE     HN1      HCL      0.330000       1.00800           0
      1785 MEMB     18       SOPE     HN2      HCL      0.330000       1.00800           0
      1786 MEMB     18       SOPE     HN3      HCL      0.330000       1.00800           0
      1787 MEMB     18       SOPE     C12      CTL2     0.130000       12.0110           0
      1788 MEMB     18       SOPE     H12A     HAL2     0.900000E-01   1.00800           0
      1789 MEMB     18       SOPE     H12B     HAL2     0.900000E-01   1.00800           0
      1790 MEMB     18       SOPE     C11      CTL2    -0.800000E-01   12.0110           0
      1791 MEMB     18       SOPE     H11A     HAL2     0.900000E-01   1.00800           0
      1792 MEMB     18       SOPE     H11B     HAL2     0.900000E-01   1.00800           0
      1793 MEMB     18       SOPE     P        PL        1.50000       30.9740           0
      1794 MEMB     18       SOPE     O13      O2L     -0.780000       15.9994           0
      1795 MEMB     18       SOPE     O14      O2L     -0.780000       15.9994           0
      1796 MEMB     18       SOPE     O12      OSLP    -0.570000       15.9994           0
      1797 MEMB     18       SOPE     O11      OSLP    -0.570000       15.9994           0
      1798 MEMB     18       SOPE     C1       CTL2    -0.800000E-01   12.0110           0
      1799 MEMB     18       SOPE     HA       HAL2     0.900000E-01   1.00800           0
      1800 MEMB     18       SOPE     HB       HAL2     0.900000E-01   1.00800           0
      1801 MEMB     18       SOPE     C2       CTL1     0.170000       12.0110           0
      1802 MEMB     18       SOPE     HS       HAL1     0.900000E-01   1.00800           0
      1803 MEMB     18       SOPE     O21      OSL     -0.490000       15.9994           0
      1804 MEMB     18       SOPE     C21      CL       0.900000       12.0110           0
      1805 MEMB     18       SOPE     O22      OBL     -0.630000       15.9994           0
      1806 MEMB     18       SOPE     C22      CTL2    -0.220000       12.0110           0
      1807 MEMB     18       SOPE     H2R      HAL2     0.900000E-01   1.00800           0
      1808 MEMB     18       SOPE     H2S      HAL2     0.900000E-01   1.00800           0
      1809 MEMB     18       SOPE     C3       CTL2     0.800000E-01   12.0110           0
      1810 MEMB     18       SOPE     HX       HAL2     0.900000E-01   1.00800           0
      1811 MEMB     18       SOPE     HY       HAL2     0.900000E-01   1.00800           0
      1812 MEMB     18       SOPE     O31      OSL     -0.490000       15.9994           0
      1813 MEMB     18       SOPE     C31      CL       0.900000       12.0110           0
      1814 MEMB     18       SOPE     O32      OBL     -0.630000       15.9994           0
      1815 MEMB     18       SOPE     C32      CTL2    -0.220000       12.0110           0
      1816 MEMB     18       SOPE     H2X      HAL2     0.900000E-01   1.00800           0
      1817 MEMB     18       SOPE     H2Y      HAL2     0.900000E-01   1.00800           0
      1818 MEMB     18       SOPE     C23      CTL2    -0.180000       12.0110           0
      1819 MEMB     18       SOPE     H3R      HAL2     0.900000E-01   1.00800           0
      1820 MEMB     18       SOPE     H3S      HAL2     0.900000E-01   1.00800           0
      1821 MEMB     18       SOPE     C24      CTL2    -0.180000       12.0110           0
      1822 MEMB     18       SOPE     H4R      HAL2     0.900000E-01   1.00800           0
      1823 MEMB     18       SOPE     H4S      HAL2     0.900000E-01   1.00800           0
      1824 MEMB     18       SOPE     C25      CTL2    -0.180000       12.0110           0
      1825 MEMB     18       SOPE     H5R      HAL2     0.900000E-01   1.00800           0
      1826 MEMB     18       SOPE     H5S      HAL2     0.900000E-01   1.00800           0
      1827 MEMB     18       SOPE     C26      CTL2    -0.180000       12.0110           0
      1828 MEMB     18       SOPE     H6R      HAL2     0.900000E-01   1.00800           0
      1829 MEMB     18       SOPE     H6S      HAL2     0.900000E-01   1.00800           0
      1830 MEMB     18       SOPE     C27      CTL2    -0.180000       12.0110           0
      1831 MEMB     18       SOPE     H7R      HAL2     0.900000E-01   1.00800           0
      1832 MEMB     18       SOPE     H7S      HAL2     0.900000E-01   1.00800           0
      1833 MEMB     18       SOPE     C28      CTL2    -0.180000       12.0110           0
      1834 MEMB     18       SOPE     H8R      HAL2     0.900000E-01   1.00800           0
      1835 MEMB     18       SOPE     H8S      HAL2     0.900000E-01   1.00800           0
      1836 MEMB     18       SOPE     C29      CEL1    -0.150000       12.0110           0
      1837 MEMB     18       SOPE     H91      HEL1     0.150000       1.00800           0
      1838 MEMB     18       SOPE     C210     CEL1    -0.150000       12.0110           0
      1839 MEMB     18       SOPE     H101     HEL1     0.150000       1.00800           0
      1840 MEMB     18       SOPE     C211     CTL2    -0.180000       12.0110           0
      1841 MEMB     18       SOPE     H11R     HAL2     0.900000E-01   1.00800           0
      1842 MEMB     18       SOPE     H11S     HAL2     0.900000E-01   1.00800           0
      1843 MEMB     18       SOPE     C212     CTL2    -0.180000       12.0110           0
      1844 MEMB     18       SOPE     H12R     HAL2     0.900000E-01   1.00800           0
      1845 MEMB     18       SOPE     H12S     HAL2     0.900000E-01   1.00800           0
      1846 MEMB     18       SOPE     C213     CTL2    -0.180000       12.0110           0
      1847 MEMB     18       SOPE     H13R     HAL2     0.900000E-01   1.00800           0
      1848 MEMB     18       SOPE     H13S     HAL2     0.900000E-01   1.00800           0
      1849 MEMB     18       SOPE     C214     CTL2    -0.180000       12.0110           0
      1850 MEMB     18       SOPE     H14R     HAL2     0.900000E-01   1.00800           0
      1851 MEMB     18       SOPE     H14S     HAL2     0.900000E-01   1.00800           0
      1852 MEMB     18       SOPE     C215     CTL2    -0.180000       12.0110           0
      1853 MEMB     18       SOPE     H15R     HAL2     0.900000E-01   1.00800           0
      1854 MEMB     18       SOPE     H15S     HAL2     0.900000E-01   1.00800           0
      1855 MEMB     18       SOPE     C216     CTL2    -0.180000       12.0110           0
      1856 MEMB     18       SOPE     H16R     HAL2     0.900000E-01   1.00800           0
      1857 MEMB     18       SOPE     H16S     HAL2     0.900000E-01   1.00800           0
      1858 MEMB     18       SOPE     C217     CTL2    -0.180000       12.0110           0
      1859 MEMB     18       SOPE     H17R     HAL2     0.900000E-01   1.00800           0
      1860 MEMB     18       SOPE     H17S     HAL2     0.900000E-01   1.00800           0
      1861 MEMB     18       SOPE     C218     CTL3    -0.270000       12.0110           0
      1862 MEMB     18       SOPE     H18R     HAL3     0.900000E-01   1.00800           0
      1863 MEMB     18       SOPE     H18S     HAL3     0.900000E-01   1.00800           0
      1864 MEMB     18       SOPE     H18T     HAL3     0.900000E-01   1.00800           0
      1865 MEMB     18       SOPE     C33      CTL2    -0.180000       12.0110           0
      1866 MEMB     18       SOPE     H3X      HAL2     0.900000E-01   1.00800           0
      1867 MEMB     18       SOPE     H3Y      HAL2     0.900000E-01   1.00800           0
      1868 MEMB     18       SOPE     C34      CTL2    -0.180000       12.0110           0
      1869 MEMB     18       SOPE     H4X      HAL2     0.900000E-01   1.00800           0
      1870 MEMB     18       SOPE     H4Y      HAL2     0.900000E-01   1.00800           0
      1871 MEMB     18       SOPE     C35      CTL2    -0.180000       12.0110           0
      1872 MEMB     18       SOPE     H5X      HAL2     0.900000E-01   1.00800           0
      1873 MEMB     18       SOPE     H5Y      HAL2     0.900000E-01   1.00800           0
      1874 MEMB     18       SOPE     C36      CTL2    -0.180000       12.0110           0
      1875 MEMB     18       SOPE     H6X      HAL2     0.900000E-01   1.00800           0
      1876 MEMB     18       SOPE     H6Y      HAL2     0.900000E-01   1.00800           0
      1877 MEMB     18       SOPE     C37      CTL2    -0.180000       12.0110           0
      1878 MEMB     18       SOPE     H7X      HAL2     0.900000E-01   1.00800           0
      1879 MEMB     18       SOPE     H7Y      HAL2     0.900000E-01   1.00800           0
      1880 MEMB     18       SOPE     C38      CTL2    -0.180000       12.0110           0
      1881 MEMB     18       SOPE     H8X      HAL2     0.900000E-01   1.00800           0
      1882 MEMB     18       SOPE     H8Y      HAL2     0.900000E-01   1.00800           0
      1883 MEMB     18       SOPE     C39      CTL2    -0.180000       12.0110           0
      1884 MEMB     18       SOPE     H9X      HAL2     0.900000E-01   1.00800           0
      1885 MEMB     18       SOPE     H9Y      HAL2     0.900000E-01   1.00800           0
      1886 MEMB     18       SOPE     C310     CTL2    -0.180000       12.0110           0
      1887 MEMB     18       SOPE     H10X     HAL2     0.900000E-01   1.00800           0
      1888 MEMB     18       SOPE     H10Y     HAL2     0.900000E-01   1.00800           0
      1889 MEMB     18       SOPE     C311     CTL2    -0.180000       12.0110           0
      1890 MEMB     18       SOPE     H11X     HAL2     0.900000E-01   1.00800           0
      1891 MEMB     18       SOPE     H11Y     HAL2     0.900000E-01   1.00800           0
      1892 MEMB     18       SOPE     C312     CTL2    -0.180000       12.0110           0
      1893 MEMB     18       SOPE     H12X     HAL2     0.900000E-01   1.00800           0
      1894 MEMB     18       SOPE     H12Y     HAL2     0.900000E-01   1.00800           0
      1895 MEMB     18       SOPE     C313     CTL2    -0.180000       12.0110           0
      1896 MEMB     18       SOPE     H13X     HAL2     0.900000E-01   1.00800           0
      1897 MEMB     18       SOPE     H13Y     HAL2     0.900000E-01   1.00800           0
      1898 MEMB     18       SOPE     C314     CTL2    -0.180000       12.0110           0
      1899 MEMB     18       SOPE     H14X     HAL2     0.900000E-01   1.00800           0
      1900 MEMB     18       SOPE     H14Y     HAL2     0.900000E-01   1.00800           0
      1901 MEMB     18       SOPE     C315     CTL2    -0.180000       12.0110           0
      1902 MEMB     18       SOPE     H15X     HAL2     0.900000E-01   1.00800           0
      1903 MEMB     18       SOPE     H15Y     HAL2     0.900000E-01   1.00800           0
      1904 MEMB     18       SOPE     C316     CTL2    -0.180000       12.0110           0
      1905 MEMB     18       SOPE     H16X     HAL2     0.900000E-01   1.00800           0
      1906 MEMB     18       SOPE     H16Y     HAL2     0.900000E-01   1.00800           0
      1907 MEMB     18       SOPE     C317     CTL2    -0.180000       12.0110           0
      1908 MEMB     18       SOPE     H17X     HAL2     0.900000E-01   1.00800           0
      1909 MEMB     18       SOPE     H17Y     HAL2     0.900000E-01   1.00800           0
      1910 MEMB     18       SOPE     C318     CTL3    -0.270000       12.0110           0
      1911 MEMB     18       SOPE     H18X     HAL3     0.900000E-01   1.00800           0
      1912 MEMB     18       SOPE     H18Y     HAL3     0.900000E-01   1.00800           0
      1913 MEMB     18       SOPE     H18Z     HAL3     0.900000E-01   1.00800           0
      1914 MEMB     19       CHL1     C3       CRL1     0.140000       12.0110           0
      1915 MEMB     19       CHL1     H3       HGA1     0.900000E-01   1.00800           0
      1916 MEMB     19       CHL1     O3       OHL     -0.660000       15.9994           0
      1917 MEMB     19       CHL1     H3'      HOL      0.430000       1.00800           0
      1918 MEMB     19       CHL1     C4       CRL2    -0.180000       12.0110           0
      1919 MEMB     19       CHL1     H4A      HGA2     0.900000E-01   1.00800           0
      1920 MEMB     19       CHL1     H4B      HGA2     0.900000E-01   1.00800           0
      1921 MEMB     19       CHL1     C5       CEL1      0.00000       12.0110           0
      1922 MEMB     19       CHL1     C6       CEL1    -0.150000       12.0110           0
      1923 MEMB     19       CHL1     H6       HEL1     0.150000       1.00800           0
      1924 MEMB     19       CHL1     C7       CRL2    -0.180000       12.0110           0
      1925 MEMB     19       CHL1     H7A      HGA2     0.900000E-01   1.00800           0
      1926 MEMB     19       CHL1     H7B      HGA2     0.900000E-01   1.00800           0
      1927 MEMB     19       CHL1     C8       CRL1    -0.900000E-01   12.0110           0
      1928 MEMB     19       CHL1     H8       HGA1     0.900000E-01   1.00800           0
      1929 MEMB     19       CHL1     C14      CRL1    -0.900000E-01   12.0110           0
      1930 MEMB     19       CHL1     H14      HGA1     0.900000E-01   1.00800           0
      1931 MEMB     19       CHL1     C15      CRL2    -0.180000       12.0110           0
      1932 MEMB     19       CHL1     H15A     HGA2     0.900000E-01   1.00800           0
      1933 MEMB     19       CHL1     H15B     HGA2     0.900000E-01   1.00800           0
      1934 MEMB     19       CHL1     C16      CRL2    -0.180000       12.0110           0
      1935 MEMB     19       CHL1     H16A     HGA2     0.900000E-01   1.00800           0
      1936 MEMB     19       CHL1     H16B     HGA2     0.900000E-01   1.00800           0
      1937 MEMB     19       CHL1     C17      CRL1    -0.900000E-01   12.0110           0
      1938 MEMB     19       CHL1     H17      HGA1     0.900000E-01   1.00800           0
      1939 MEMB     19       CHL1     C13      CRL1      0.00000       12.0110           0
      1940 MEMB     19       CHL1     C18      CTL3    -0.270000       12.0110           0
      1941 MEMB     19       CHL1     H18A     HAL3     0.900000E-01   1.00800           0
      1942 MEMB     19       CHL1     H18B     HAL3     0.900000E-01   1.00800           0
      1943 MEMB     19       CHL1     H18C     HAL3     0.900000E-01   1.00800           0
      1944 MEMB     19       CHL1     C12      CRL2    -0.180000       12.0110           0
      1945 MEMB     19       CHL1     H12A     HGA2     0.900000E-01   1.00800           0
      1946 MEMB     19       CHL1     H12B     HGA2     0.900000E-01   1.00800           0
      1947 MEMB     19       CHL1     C11      CRL2    -0.180000       12.0110           0
      1948 MEMB     19       CHL1     H11A     HGA2     0.900000E-01   1.00800           0
      1949 MEMB     19       CHL1     H11B     HGA2     0.900000E-01   1.00800           0
      1950 MEMB     19       CHL1     C9       CRL1    -0.900000E-01   12.0110           0
      1951 MEMB     19       CHL1     H9       HGA1     0.900000E-01   1.00800           0
      1952 MEMB     19       CHL1     C10      CRL1      0.00000       12.0110           0
      1953 MEMB     19       CHL1     C19      CTL3    -0.270000       12.0110           0
      1954 MEMB     19       CHL1     H19A     HAL3     0.900000E-01   1.00800           0
      1955 MEMB     19       CHL1     H19B     HAL3     0.900000E-01   1.00800           0
      1956 MEMB     19       CHL1     H19C     HAL3     0.900000E-01   1.00800           0
      1957 MEMB     19       CHL1     C1       CRL2    -0.180000       12.0110           0
      1958 MEMB     19       CHL1     H1A      HGA2     0.900000E-01   1.00800           0
      1959 MEMB     19       CHL1     H1B      HGA2     0.900000E-01   1.00800           0
      1960 MEMB     19       CHL1     C2       CRL2    -0.180000       12.0110           0
      1961 MEMB     19       CHL1     H2A      HGA2     0.900000E-01   1.00800           0
      1962 MEMB     19       CHL1     H2B      HGA2     0.900000E-01   1.00800           0
      1963 MEMB     19       CHL1     C20      CTL1    -0.900000E-01   12.0110           0
      1964 MEMB     19       CHL1     H20      HAL1     0.900000E-01   1.00800           0
      1965 MEMB     19       CHL1     C21      CTL3    -0.270000       12.0110           0
      1966 MEMB     19       CHL1     H21A     HAL3     0.900000E-01   1.00800           0
      1967 MEMB     19       CHL1     H21B     HAL3     0.900000E-01   1.00800           0
      1968 MEMB     19       CHL1     H21C     HAL3     0.900000E-01   1.00800           0
      1969 MEMB     19       CHL1     C22      CTL2    -0.180000       12.0110           0
      1970 MEMB     19       CHL1     H22A     HAL2     0.900000E-01   1.00800           0
      1971 MEMB     19       CHL1     H22B     HAL2     0.900000E-01   1.00800           0
      1972 MEMB     19       CHL1     C23      CTL2    -0.180000       12.0110           0
      1973 MEMB     19       CHL1     H23A     HAL2     0.900000E-01   1.00800           0
      1974 MEMB     19       CHL1     H23B     HAL2     0.900000E-01   1.00800           0
      1975 MEMB     19       CHL1     C24      CTL2    -0.180000       12.0110           0
      1976 MEMB     19       CHL1     H24A     HAL2     0.900000E-01   1.00800           0
      1977 MEMB     19       CHL1     H24B     HAL2     0.900000E-01   1.00800           0
      1978 MEMB     19       CHL1     C25      CTL1    -0.900000E-01   12.0110           0
      1979 MEMB     19       CHL1     H25      HAL1     0.900000E-01   1.00800           0
      1980 MEMB     19       CHL1     C26      CTL3    -0.270000       12.0110           0
      1981 MEMB     19       CHL1     H26A     HAL3     0.900000E-01   1.00800           0
      1982 MEMB     19       CHL1     H26B     HAL3     0.900000E-01   1.00800           0
      1983 MEMB     19       CHL1     H26C     HAL3     0.900000E-01   1.00800           0
      1984 MEMB     19       CHL1     C27      CTL3    -0.270000       12.0110           0
      1985 MEMB     19       CHL1     H27A     HAL3     0.900000E-01   1.00800           0
      1986 MEMB     19       CHL1     H27B     HAL3     0.900000E-01   1.00800           0
      1987 MEMB     19       CHL1     H27C     HAL3     0.900000E-01   1.00800           0
      1988 MEMB     20       SAPE     N        NH3L    -0.300000       14.0070           0
      1989 MEMB     20       SAPE     HN1      HCL      0.330000       1.00800           0
      1990 MEMB     20       SAPE     HN2      HCL      0.330000       1.00800           0
      1991 MEMB     20       SAPE     HN3      HCL      0.330000       1.00800           0
      1992 MEMB     20       SAPE     C12      CTL2     0.130000       12.0110           0
      1993 MEMB     20       SAPE     H12A     HAL2     0.900000E-01   1.00800           0
      1994 MEMB     20       SAPE     H12B     HAL2     0.900000E-01   1.00800           0
      1995 MEMB     20       SAPE     C11      CTL2    -0.800000E-01   12.0110           0
      1996 MEMB     20       SAPE     H11A     HAL2     0.900000E-01   1.00800           0
      1997 MEMB     20       SAPE     H11B     HAL2     0.900000E-01   1.00800           0
      1998 MEMB     20       SAPE     P        PL        1.50000       30.9740           0
      1999 MEMB     20       SAPE     O13      O2L     -0.780000       15.9994           0
      2000 MEMB     20       SAPE     O14      O2L     -0.780000       15.9994           0
      2001 MEMB     20       SAPE     O12      OSLP    -0.570000       15.9994           0
      2002 MEMB     20       SAPE     O11      OSLP    -0.570000       15.9994           0
      2003 MEMB     20       SAPE     C1       CTL2    -0.800000E-01   12.0110           0
      2004 MEMB     20       SAPE     HA       HAL2     0.900000E-01   1.00800           0
      2005 MEMB     20       SAPE     HB       HAL2     0.900000E-01   1.00800           0
      2006 MEMB     20       SAPE     C2       CTL1     0.170000       12.0110           0
      2007 MEMB     20       SAPE     HS       HAL1     0.900000E-01   1.00800           0
      2008 MEMB     20       SAPE     O21      OSL     -0.490000       15.9994           0
      2009 MEMB     20       SAPE     C21      CL       0.900000       12.0110           0
      2010 MEMB     20       SAPE     O22      OBL     -0.630000       15.9994           0
      2011 MEMB     20       SAPE     C22      CTL2    -0.220000       12.0110           0
      2012 MEMB     20       SAPE     H2R      HAL2     0.900000E-01   1.00800           0
      2013 MEMB     20       SAPE     H2S      HAL2     0.900000E-01   1.00800           0
      2014 MEMB     20       SAPE     C3       CTL2     0.800000E-01   12.0110           0
      2015 MEMB     20       SAPE     HX       HAL2     0.900000E-01   1.00800           0
      2016 MEMB     20       SAPE     HY       HAL2     0.900000E-01   1.00800           0
      2017 MEMB     20       SAPE     O31      OSL     -0.490000       15.9994           0
      2018 MEMB     20       SAPE     C31      CL       0.900000       12.0110           0
      2019 MEMB     20       SAPE     O32      OBL     -0.630000       15.9994           0
      2020 MEMB     20       SAPE     C32      CTL2    -0.220000       12.0110           0
      2021 MEMB     20       SAPE     H2X      HAL2     0.900000E-01   1.00800           0
      2022 MEMB     20       SAPE     H2Y      HAL2     0.900000E-01   1.00800           0
      2023 MEMB     20       SAPE     C23      CTL2    -0.180000       12.0110           0
      2024 MEMB     20       SAPE     H3R      HAL2     0.900000E-01   1.00800           0
      2025 MEMB     20       SAPE     H3S      HAL2     0.900000E-01   1.00800           0
      2026 MEMB     20       SAPE     C24      CTL2    -0.180000       12.0110           0
      2027 MEMB     20       SAPE     H4R      HAL2     0.900000E-01   1.00800           0
      2028 MEMB     20       SAPE     H4S      HAL2     0.900000E-01   1.00800           0
      2029 MEMB     20       SAPE     C25      CEL1    -0.150000       12.0110           0
      2030 MEMB     20       SAPE     H5R      HEL1     0.150000       1.00800           0
      2031 MEMB     20       SAPE     C26      CEL1    -0.150000       12.0110           0
      2032 MEMB     20       SAPE     H6R      HEL1     0.150000       1.00800           0
      2033 MEMB     20       SAPE     C27      CTL2    -0.180000       12.0110           0
      2034 MEMB     20       SAPE     H7R      HAL2     0.900000E-01   1.00800           0
      2035 MEMB     20       SAPE     H7S      HAL2     0.900000E-01   1.00800           0
      2036 MEMB     20       SAPE     C28      CEL1    -0.150000       12.0110           0
      2037 MEMB     20       SAPE     H8R      HEL1     0.150000       1.00800           0
      2038 MEMB     20       SAPE     C29      CEL1    -0.150000       12.0110           0
      2039 MEMB     20       SAPE     H9R      HEL1     0.150000       1.00800           0
      2040 MEMB     20       SAPE     C210     CTL2    -0.180000       12.0110           0
      2041 MEMB     20       SAPE     H10R     HAL2     0.900000E-01   1.00800           0
      2042 MEMB     20       SAPE     H10S     HAL2     0.900000E-01   1.00800           0
      2043 MEMB     20       SAPE     C211     CEL1    -0.150000       12.0110           0
      2044 MEMB     20       SAPE     H11R     HEL1     0.150000       1.00800           0
      2045 MEMB     20       SAPE     C212     CEL1    -0.150000       12.0110           0
      2046 MEMB     20       SAPE     H12R     HEL1     0.150000       1.00800           0
      2047 MEMB     20       SAPE     C213     CTL2    -0.180000       12.0110           0
      2048 MEMB     20       SAPE     H13R     HAL2     0.900000E-01   1.00800           0
      2049 MEMB     20       SAPE     H13S     HAL2     0.900000E-01   1.00800           0
      2050 MEMB     20       SAPE     C214     CEL1    -0.150000       12.0110           0
      2051 MEMB     20       SAPE     H14R     HEL1     0.150000       1.00800           0
      2052 MEMB     20       SAPE     C215     CEL1    -0.150000       12.0110           0
      2053 MEMB     20       SAPE     H15R     HEL1     0.150000       1.00800           0
      2054 MEMB     20       SAPE     C216     CTL2    -0.180000       12.0110           0
      2055 MEMB     20       SAPE     H16R     HAL2     0.900000E-01   1.00800           0
      2056 MEMB     20       SAPE     H16S     HAL2     0.900000E-01   1.00800           0
      2057 MEMB     20       SAPE     C217     CTL2    -0.180000       12.0110           0
      2058 MEMB     20       SAPE     H17R     HAL2     0.900000E-01   1.00800           0
      2059 MEMB     20       SAPE     H17S     HAL2     0.900000E-01   1.00800           0
      2060 MEMB     20       SAPE     C218     CTL2    -0.180000       12.0110           0
      2061 MEMB     20       SAPE     H18R     HAL2     0.900000E-01   1.00800           0
      2062 MEMB     20       SAPE     H18S     HAL2     0.900000E-01   1.00800           0
      2063 MEMB     20       SAPE     C219     CTL2    -0.180000       12.0110           0
      2064 MEMB     20       SAPE     H19R     HAL2     0.900000E-01   1.00800           0
      2065 MEMB     20       SAPE     H19S     HAL2     0.900000E-01   1.00800           0
      2066 MEMB     20       SAPE     C220     CTL3    -0.270000       12.0110           0
      2067 MEMB     20       SAPE     H20R     HAL3     0.900000E-01   1.00800           0
      2068 MEMB     20       SAPE     H20S     HAL3     0.900000E-01   1.00800           0
      2069 MEMB     20       SAPE     H20T     HAL3     0.900000E-01   1.00800           0
      2070 MEMB     20       SAPE     C33      CTL2    -0.180000       12.0110           0
      2071 MEMB     20       SAPE     H3X      HAL2     0.900000E-01   1.00800           0
      2072 MEMB     20       SAPE     H3Y      HAL2     0.900000E-01   1.00800           0
      2073 MEMB     20       SAPE     C34      CTL2    -0.180000       12.0110           0
      2074 MEMB     20       SAPE     H4X      HAL2     0.900000E-01   1.00800           0
      2075 MEMB     20       SAPE     H4Y      HAL2     0.900000E-01   1.00800           0
      2076 MEMB     20       SAPE     C35      CTL2    -0.180000       12.0110           0
      2077 MEMB     20       SAPE     H5X      HAL2     0.900000E-01   1.00800           0
      2078 MEMB     20       SAPE     H5Y      HAL2     0.900000E-01   1.00800           0
      2079 MEMB     20       SAPE     C36      CTL2    -0.180000       12.0110           0
      2080 MEMB     20       SAPE     H6X      HAL2     0.900000E-01   1.00800           0
      2081 MEMB     20       SAPE     H6Y      HAL2     0.900000E-01   1.00800           0
      2082 MEMB     20       SAPE     C37      CTL2    -0.180000       12.0110           0
      2083 MEMB     20       SAPE     H7X      HAL2     0.900000E-01   1.00800           0
      2084 MEMB     20       SAPE     H7Y      HAL2     0.900000E-01   1.00800           0
      2085 MEMB     20       SAPE     C38      CTL2    -0.180000       12.0110           0
      2086 MEMB     20       SAPE     H8X      HAL2     0.900000E-01   1.00800           0
      2087 MEMB     20       SAPE     H8Y      HAL2     0.900000E-01   1.00800           0
      2088 MEMB     20       SAPE     C39      CTL2    -0.180000       12.0110           0
      2089 MEMB     20       SAPE     H9X      HAL2     0.900000E-01   1.00800           0
      2090 MEMB     20       SAPE     H9Y      HAL2     0.900000E-01   1.00800           0
      2091 MEMB     20       SAPE     C310     CTL2    -0.180000       12.0110           0
      2092 MEMB     20       SAPE     H10X     HAL2     0.900000E-01   1.00800           0
      2093 MEMB     20       SAPE     H10Y     HAL2     0.900000E-01   1.00800           0
      2094 MEMB     20       SAPE     C311     CTL2    -0.180000       12.0110           0
      2095 MEMB     20       SAPE     H11X     HAL2     0.900000E-01   1.00800           0
      2096 MEMB     20       SAPE     H11Y     HAL2     0.900000E-01   1.00800           0
      2097 MEMB     20       SAPE     C312     CTL2    -0.180000       12.0110           0
      2098 MEMB     20       SAPE     H12X     HAL2     0.900000E-01   1.00800           0
      2099 MEMB     20       SAPE     H12Y     HAL2     0.900000E-01   1.00800           0
      2100 MEMB     20       SAPE     C313     CTL2    -0.180000       12.0110           0
      2101 MEMB     20       SAPE     H13X     HAL2     0.900000E-01   1.00800           0
      2102 MEMB     20       SAPE     H13Y     HAL2     0.900000E-01   1.00800           0
      2103 MEMB     20       SAPE     C314     CTL2    -0.180000       12.0110           0
      2104 MEMB     20       SAPE     H14X     HAL2     0.900000E-01   1.00800           0
      2105 MEMB     20       SAPE     H14Y     HAL2     0.900000E-01   1.00800           0
      2106 MEMB     20       SAPE     C315     CTL2    -0.180000       12.0110           0
      2107 MEMB     20       SAPE     H15X     HAL2     0.900000E-01   1.00800           0
      2108 MEMB     20       SAPE     H15Y     HAL2     0.900000E-01   1.00800           0
      2109 MEMB     20       SAPE     C316     CTL2    -0.180000       12.0110           0
      2110 MEMB     20       SAPE     H16X     HAL2     0.900000E-01   1.00800           0
      2111 MEMB     20       SAPE     H16Y     HAL2     0.900000E-01   1.00800           0
      2112 MEMB     20       SAPE     C317     CTL2    -0.180000       12.0110           0
      2113 MEMB     20       SAPE     H17X     HAL2     0.900000E-01   1.00800           0
      2114 MEMB     20       SAPE     H17Y     HAL2     0.900000E-01   1.00800           0
      2115 MEMB     20       SAPE     C318     CTL3    -0.270000       12.0110           0
      2116 MEMB     20       SAPE     H18X     HAL3     0.900000E-01   1.00800           0
      2117 MEMB     20       SAPE     H18Y     HAL3     0.900000E-01   1.00800           0
      2118 MEMB     20       SAPE     H18Z     HAL3     0.900000E-01   1.00800           0
      2119 MEMB     21       CHL1     C3       CRL1     0.140000       12.0110           0
      2120 MEMB     21       CHL1     H3       HGA1     0.900000E-01   1.00800           0
      2121 MEMB     21       CHL1     O3       OHL     -0.660000       15.9994           0
      2122 MEMB     21       CHL1     H3'      HOL      0.430000       1.00800           0
      2123 MEMB     21       CHL1     C4       CRL2    -0.180000       12.0110           0
      2124 MEMB     21       CHL1     H4A      HGA2     0.900000E-01   1.00800           0
      2125 MEMB     21       CHL1     H4B      HGA2     0.900000E-01   1.00800           0
      2126 MEMB     21       CHL1     C5       CEL1      0.00000       12.0110           0
      2127 MEMB     21       CHL1     C6       CEL1    -0.150000       12.0110           0
      2128 MEMB     21       CHL1     H6       HEL1     0.150000       1.00800           0
      2129 MEMB     21       CHL1     C7       CRL2    -0.180000       12.0110           0
      2130 MEMB     21       CHL1     H7A      HGA2     0.900000E-01   1.00800           0
      2131 MEMB     21       CHL1     H7B      HGA2     0.900000E-01   1.00800           0
      2132 MEMB     21       CHL1     C8       CRL1    -0.900000E-01   12.0110           0
      2133 MEMB     21       CHL1     H8       HGA1     0.900000E-01   1.00800           0
      2134 MEMB     21       CHL1     C14      CRL1    -0.900000E-01   12.0110           0
      2135 MEMB     21       CHL1     H14      HGA1     0.900000E-01   1.00800           0
      2136 MEMB     21       CHL1     C15      CRL2    -0.180000       12.0110           0
      2137 MEMB     21       CHL1     H15A     HGA2     0.900000E-01   1.00800           0
      2138 MEMB     21       CHL1     H15B     HGA2     0.900000E-01   1.00800           0
      2139 MEMB     21       CHL1     C16      CRL2    -0.180000       12.0110           0
      2140 MEMB     21       CHL1     H16A     HGA2     0.900000E-01   1.00800           0
      2141 MEMB     21       CHL1     H16B     HGA2     0.900000E-01   1.00800           0
      2142 MEMB     21       CHL1     C17      CRL1    -0.900000E-01   12.0110           0
      2143 MEMB     21       CHL1     H17      HGA1     0.900000E-01   1.00800           0
      2144 MEMB     21       CHL1     C13      CRL1      0.00000       12.0110           0
      2145 MEMB     21       CHL1     C18      CTL3    -0.270000       12.0110           0
      2146 MEMB     21       CHL1     H18A     HAL3     0.900000E-01   1.00800           0
      2147 MEMB     21       CHL1     H18B     HAL3     0.900000E-01   1.00800           0
      2148 MEMB     21       CHL1     H18C     HAL3     0.900000E-01   1.00800           0
      2149 MEMB     21       CHL1     C12      CRL2    -0.180000       12.0110           0
      2150 MEMB     21       CHL1     H12A     HGA2     0.900000E-01   1.00800           0
      2151 MEMB     21       CHL1     H12B     HGA2     0.900000E-01   1.00800           0
      2152 MEMB     21       CHL1     C11      CRL2    -0.180000       12.0110           0
      2153 MEMB     21       CHL1     H11A     HGA2     0.900000E-01   1.00800           0
      2154 MEMB     21       CHL1     H11B     HGA2     0.900000E-01   1.00800           0
      2155 MEMB     21       CHL1     C9       CRL1    -0.900000E-01   12.0110           0
      2156 MEMB     21       CHL1     H9       HGA1     0.900000E-01   1.00800           0
      2157 MEMB     21       CHL1     C10      CRL1      0.00000       12.0110           0
      2158 MEMB     21       CHL1     C19      CTL3    -0.270000       12.0110           0
      2159 MEMB     21       CHL1     H19A     HAL3     0.900000E-01   1.00800           0
      2160 MEMB     21       CHL1     H19B     HAL3     0.900000E-01   1.00800           0
      2161 MEMB     21       CHL1     H19C     HAL3     0.900000E-01   1.00800           0
      2162 MEMB     21       CHL1     C1       CRL2    -0.180000       12.0110           0
      2163 MEMB     21       CHL1     H1A      HGA2     0.900000E-01   1.00800           0
      2164 MEMB     21       CHL1     H1B      HGA2     0.900000E-01   1.00800           0
      2165 MEMB     21       CHL1     C2       CRL2    -0.180000       12.0110           0
      2166 MEMB     21       CHL1     H2A      HGA2     0.900000E-01   1.00800           0
      2167 MEMB     21       CHL1     H2B      HGA2     0.900000E-01   1.00800           0
      2168 MEMB     21       CHL1     C20      CTL1    -0.900000E-01   12.0110           0
      2169 MEMB     21       CHL1     H20      HAL1     0.900000E-01   1.00800           0
      2170 MEMB     21       CHL1     C21      CTL3    -0.270000       12.0110           0
      2171 MEMB     21       CHL1     H21A     HAL3     0.900000E-01   1.00800           0
      2172 MEMB     21       CHL1     H21B     HAL3     0.900000E-01   1.00800           0
      2173 MEMB     21       CHL1     H21C     HAL3     0.900000E-01   1.00800           0
      2174 MEMB     21       CHL1     C22      CTL2    -0.180000       12.0110           0
      2175 MEMB     21       CHL1     H22A     HAL2     0.900000E-01   1.00800           0
      2176 MEMB     21       CHL1     H22B     HAL2     0.900000E-01   1.00800           0
      2177 MEMB     21       CHL1     C23      CTL2    -0.180000       12.0110           0
      2178 MEMB     21       CHL1     H23A     HAL2     0.900000E-01   1.00800           0
      2179 MEMB     21       CHL1     H23B     HAL2     0.900000E-01   1.00800           0
      2180 MEMB     21       CHL1     C24      CTL2    -0.180000       12.0110           0
      2181 MEMB     21       CHL1     H24A     HAL2     0.900000E-01   1.00800           0
      2182 MEMB     21       CHL1     H24B     HAL2     0.900000E-01   1.00800           0
      2183 MEMB     21       CHL1     C25      CTL1    -0.900000E-01   12.0110           0
      2184 MEMB     21       CHL1     H25      HAL1     0.900000E-01   1.00800           0
      2185 MEMB     21       CHL1     C26      CTL3    -0.270000       12.0110           0
      2186 MEMB     21       CHL1     H26A     HAL3     0.900000E-01   1.00800           0
      2187 MEMB     21       CHL1     H26B     HAL3     0.900000E-01   1.00800           0
      2188 MEMB     21       CHL1     H26C     HAL3     0.900000E-01   1.00800           0
      2189 MEMB     21       CHL1     C27      CTL3    -0.270000       12.0110           0
      2190 MEMB     21       CHL1     H27A     HAL3     0.900000E-01   1.00800           0
      2191 MEMB     21       CHL1     H27B     HAL3     0.900000E-01   1.00800           0
      2192 MEMB     21       CHL1     H27C     HAL3     0.900000E-01   1.00800           0
      2193 MEMB     22       SOPE     N        NH3L    -0.300000       14.0070           0
      2194 MEMB     22       SOPE     HN1      HCL      0.330000       1.00800           0
      2195 MEMB     22       SOPE     HN2      HCL      0.330000       1.00800           0
      2196 MEMB     22       SOPE     HN3      HCL      0.330000       1.00800           0
      2197 MEMB     22       SOPE     C12      CTL2     0.130000       12.0110           0
      2198 MEMB     22       SOPE     H12A     HAL2     0.900000E-01   1.00800           0
      2199 MEMB     22       SOPE     H12B     HAL2     0.900000E-01   1.00800           0
      2200 MEMB     22       SOPE     C11      CTL2    -0.800000E-01   12.0110           0
      2201 MEMB     22       SOPE     H11A     HAL2     0.900000E-01   1.00800           0
      2202 MEMB     22       SOPE     H11B     HAL2     0.900000E-01   1.00800           0
      2203 MEMB     22       SOPE     P        PL        1.50000       30.9740           0
      2204 MEMB     22       SOPE     O13      O2L     -0.780000       15.9994           0
      2205 MEMB     22       SOPE     O14      O2L     -0.780000       15.9994           0
      2206 MEMB     22       SOPE     O12      OSLP    -0.570000       15.9994           0
      2207 MEMB     22       SOPE     O11      OSLP    -0.570000       15.9994           0
      2208 MEMB     22       SOPE     C1       CTL2    -0.800000E-01   12.0110           0
      2209 MEMB     22       SOPE     HA       HAL2     0.900000E-01   1.00800           0
      2210 MEMB     22       SOPE     HB       HAL2     0.900000E-01   1.00800           0
      2211 MEMB     22       SOPE     C2       CTL1     0.170000       12.0110           0
      2212 MEMB     22       SOPE     HS       HAL1     0.900000E-01   1.00800           0
      2213 MEMB     22       SOPE     O21      OSL     -0.490000       15.9994           0
      2214 MEMB     22       SOPE     C21      CL       0.900000       12.0110           0
      2215 MEMB     22       SOPE     O22      OBL     -0.630000       15.9994           0
      2216 MEMB     22       SOPE     C22      CTL2    -0.220000       12.0110           0
      2217 MEMB     22       SOPE     H2R      HAL2     0.900000E-01   1.00800           0
      2218 MEMB     22       SOPE     H2S      HAL2     0.900000E-01   1.00800           0
      2219 MEMB     22       SOPE     C3       CTL2     0.800000E-01   12.0110           0
      2220 MEMB     22       SOPE     HX       HAL2     0.900000E-01   1.00800           0
      2221 MEMB     22       SOPE     HY       HAL2     0.900000E-01   1.00800           0
      2222 MEMB     22       SOPE     O31      OSL     -0.490000       15.9994           0
      2223 MEMB     22       SOPE     C31      CL       0.900000       12.0110           0
      2224 MEMB     22       SOPE     O32      OBL     -0.630000       15.9994           0
      2225 MEMB     22       SOPE     C32      CTL2    -0.220000       12.0110           0
      2226 MEMB     22       SOPE     H2X      HAL2     0.900000E-01   1.00800           0
      2227 MEMB     22       SOPE     H2Y      HAL2     0.900000E-01   1.00800           0
      2228 MEMB     22       SOPE     C23      CTL2    -0.180000       12.0110           0
      2229 MEMB     22       SOPE     H3R      HAL2     0.900000E-01   1.00800           0
      2230 MEMB     22       SOPE     H3S      HAL2     0.900000E-01   1.00800           0
      2231 MEMB     22       SOPE     C24      CTL2    -0.180000       12.0110           0
      2232 MEMB     22       SOPE     H4R      HAL2     0.900000E-01   1.00800           0
      2233 MEMB     22       SOPE     H4S      HAL2     0.900000E-01   1.00800           0
      2234 MEMB     22       SOPE     C25      CTL2    -0.180000       12.0110           0
      2235 MEMB     22       SOPE     H5R      HAL2     0.900000E-01   1.00800           0
      2236 MEMB     22       SOPE     H5S      HAL2     0.900000E-01   1.00800           0
      2237 MEMB     22       SOPE     C26      CTL2    -0.180000       12.0110           0
      2238 MEMB     22       SOPE     H6R      HAL2     0.900000E-01   1.00800           0
      2239 MEMB     22       SOPE     H6S      HAL2     0.900000E-01   1.00800           0
      2240 MEMB     22       SOPE     C27      CTL2    -0.180000       12.0110           0
      2241 MEMB     22       SOPE     H7R      HAL2     0.900000E-01   1.00800           0
      2242 MEMB     22       SOPE     H7S      HAL2     0.900000E-01   1.00800           0
      2243 MEMB     22       SOPE     C28      CTL2    -0.180000       12.0110           0
      2244 MEMB     22       SOPE     H8R      HAL2     0.900000E-01   1.00800           0
      2245 MEMB     22       SOPE     H8S      HAL2     0.900000E-01   1.00800           0
      2246 MEMB     22       SOPE     C29      CEL1    -0.150000       12.0110           0
      2247 MEMB     22       SOPE     H91      HEL1     0.150000       1.00800           0
      2248 MEMB     22       SOPE     C210     CEL1    -0.150000       12.0110           0
      2249 MEMB     22       SOPE     H101     HEL1     0.150000       1.00800           0
      2250 MEMB     22       SOPE     C211     CTL2    -0.180000       12.0110           0
      2251 MEMB     22       SOPE     H11R     HAL2     0.900000E-01   1.00800           0
      2252 MEMB     22       SOPE     H11S     HAL2     0.900000E-01   1.00800           0
      2253 MEMB     22       SOPE     C212     CTL2    -0.180000       12.0110           0
      2254 MEMB     22       SOPE     H12R     HAL2     0.900000E-01   1.00800           0
      2255 MEMB     22       SOPE     H12S     HAL2     0.900000E-01   1.00800           0
      2256 MEMB     22       SOPE     C213     CTL2    -0.180000       12.0110           0
      2257 MEMB     22       SOPE     H13R     HAL2     0.900000E-01   1.00800           0
      2258 MEMB     22       SOPE     H13S     HAL2     0.900000E-01   1.00800           0
      2259 MEMB     22       SOPE     C214     CTL2    -0.180000       12.0110           0
      2260 MEMB     22       SOPE     H14R     HAL2     0.900000E-01   1.00800           0
      2261 MEMB     22       SOPE     H14S     HAL2     0.900000E-01   1.00800           0
      2262 MEMB     22       SOPE     C215     CTL2    -0.180000       12.0110           0
      2263 MEMB     22       SOPE     H15R     HAL2     0.900000E-01   1.00800           0
      2264 MEMB     22       SOPE     H15S     HAL2     0.900000E-01   1.00800           0
      2265 MEMB     22       SOPE     C216     CTL2    -0.180000       12.0110           0
      2266 MEMB     22       SOPE     H16R     HAL2     0.900000E-01   1.00800           0
      2267 MEMB     22       SOPE     H16S     HAL2     0.900000E-01   1.00800           0
      2268 MEMB     22       SOPE     C217     CTL2    -0.180000       12.0110           0
      2269 MEMB     22       SOPE     H17R     HAL2     0.900000E-01   1.00800           0
      2270 MEMB     22       SOPE     H17S     HAL2     0.900000E-01   1.00800           0
      2271 MEMB     22       SOPE     C218     CTL3    -0.270000       12.0110           0
      2272 MEMB     22       SOPE     H18R     HAL3     0.900000E-01   1.00800           0
      2273 MEMB     22       SOPE     H18S     HAL3     0.900000E-01   1.00800           0
      2274 MEMB     22       SOPE     H18T     HAL3     0.900000E-01   1.00800           0
      2275 MEMB     22       SOPE     C33      CTL2    -0.180000       12.0110           0
      2276 MEMB     22       SOPE     H3X      HAL2     0.900000E-01   1.00800           0
      2277 MEMB     22       SOPE     H3Y      HAL2     0.900000E-01   1.00800           0
      2278 MEMB     22       SOPE     C34      CTL2    -0.180000       12.0110           0
      2279 MEMB     22       SOPE     H4X      HAL2     0.900000E-01   1.00800           0
      2280 MEMB     22       SOPE     H4Y      HAL2     0.900000E-01   1.00800           0
      2281 MEMB     22       SOPE     C35      CTL2    -0.180000       12.0110           0
      2282 MEMB     22       SOPE     H5X      HAL2     0.900000E-01   1.00800           0
      2283 MEMB     22       SOPE     H5Y      HAL2     0.900000E-01   1.00800           0
      2284 MEMB     22       SOPE     C36      CTL2    -0.180000       12.0110           0
      2285 MEMB     22       SOPE     H6X      HAL2     0.900000E-01   1.00800           0
      2286 MEMB     22       SOPE     H6Y      HAL2     0.900000E-01   1.00800           0
      2287 MEMB     22       SOPE     C37      CTL2    -0.180000       12.0110           0
      2288 MEMB     22       SOPE     H7X      HAL2     0.900000E-01   1.00800           0
      2289 MEMB     22       SOPE     H7Y      HAL2     0.900000E-01   1.00800           0
      2290 MEMB     22       SOPE     C38      CTL2    -0.180000       12.0110           0
      2291 MEMB     22       SOPE     H8X      HAL2     0.900000E-01   1.00800           0
      2292 MEMB     22       SOPE     H8Y      HAL2     0.900000E-01   1.00800           0
      2293 MEMB     22       SOPE     C39      CTL2    -0.180000       12.0110           0
      2294 MEMB     22       SOPE     H9X      HAL2     0.900000E-01   1.00800           0
      2295 MEMB     22       SOPE     H9Y      HAL2     0.900000E-01   1.00800           0
      2296 MEMB     22       SOPE     C310     CTL2    -0.180000       12.0110           0
      2297 MEMB     22       SOPE     H10X     HAL2     0.900000E-01   1.00800           0
      2298 MEMB     22       SOPE     H10Y     HAL2     0.900000E-01   1.00800           0
      2299 MEMB     22       SOPE     C311     CTL2    -0.180000       12.0110           0
      2300 MEMB     22       SOPE     H11X     HAL2     0.900000E-01   1.00800           0
      2301 MEMB     22       SOPE     H11Y     HAL2     0.900000E-01   1.00800           0
      2302 MEMB     22       SOPE     C312     CTL2    -0.180000       12.0110           0
      2303 MEMB     22       SOPE     H12X     HAL2     0.900000E-01   1.00800           0
      2304 MEMB     22       SOPE     H12Y     HAL2     0.900000E-01   1.00800           0
      2305 MEMB     22       SOPE     C313     CTL2    -0.180000       12.0110           0
      2306 MEMB     22       SOPE     H13X     HAL2     0.900000E-01   1.00800           0
      2307 MEMB     22       SOPE     H13Y     HAL2     0.900000E-01   1.00800           0
      2308 MEMB     22       SOPE     C314     CTL2    -0.180000       12.0110           0
      2309 MEMB     22       SOPE     H14X     HAL2     0.900000E-01   1.00800           0
      2310 MEMB     22       SOPE     H14Y     HAL2     0.900000E-01   1.00800           0
      2311 MEMB     22       SOPE     C315     CTL2    -0.180000       12.0110           0
      2312 MEMB     22       SOPE     H15X     HAL2     0.900000E-01   1.00800           0
      2313 MEMB     22       SOPE     H15Y     HAL2     0.900000E-01   1.00800           0
      2314 MEMB     22       SOPE     C316     CTL2    -0.180000       12.0110           0
      2315 MEMB     22       SOPE     H16X     HAL2     0.900000E-01   1.00800           0
      2316 MEMB     22       SOPE     H16Y     HAL2     0.900000E-01   1.00800           0
      2317 MEMB     22       SOPE     C317     CTL2    -0.180000       12.0110           0
      2318 MEMB     22       SOPE     H17X     HAL2     0.900000E-01   1.00800           0
      2319 MEMB     22       SOPE     H17Y     HAL2     0.900000E-01   1.00800           0
      2320 MEMB     22       SOPE     C318     CTL3    -0.270000       12.0110           0
      2321 MEMB     22       SOPE     H18X     HAL3     0.900000E-01   1.00800           0
      2322 MEMB     22       SOPE     H18Y     HAL3     0.900000E-01   1.00800           0
      2323 MEMB     22       SOPE     H18Z     HAL3     0.900000E-01   1.00800           0
      2324 MEMB     23       SAPE     N        NH3L    -0.300000       14.0070           0
      2325 MEMB     23       SAPE     HN1      HCL      0.330000       1.00800           0
      2326 MEMB     23       SAPE     HN2      HCL      0.330000       1.00800           0
      2327 MEMB     23       SAPE     HN3      HCL      0.330000       1.00800           0
      2328 MEMB     23       SAPE     C12      CTL2     0.130000       12.0110           0
      2329 MEMB     23       SAPE     H12A     HAL2     0.900000E-01   1.00800           0
      2330 MEMB     23       SAPE     H12B     HAL2     0.900000E-01   1.00800           0
      2331 MEMB     23       SAPE     C11      CTL2    -0.800000E-01   12.0110           0
      2332 MEMB     23       SAPE     H11A     HAL2     0.900000E-01   1.00800           0
      2333 MEMB     23       SAPE     H11B     HAL2     0.900000E-01   1.00800           0
      2334 MEMB     23       SAPE     P        PL        1.50000       30.9740           0
      2335 MEMB     23       SAPE     O13      O2L     -0.780000       15.9994           0
      2336 MEMB     23       SAPE     O14      O2L     -0.780000       15.9994           0
      2337 MEMB     23       SAPE     O12      OSLP    -0.570000       15.9994           0
      2338 MEMB     23       SAPE     O11      OSLP    -0.570000       15.9994           0
      2339 MEMB     23       SAPE     C1       CTL2    -0.800000E-01   12.0110           0
      2340 MEMB     23       SAPE     HA       HAL2     0.900000E-01   1.00800           0
      2341 MEMB     23       SAPE     HB       HAL2     0.900000E-01   1.00800           0
      2342 MEMB     23       SAPE     C2       CTL1     0.170000       12.0110           0
      2343 MEMB     23       SAPE     HS       HAL1     0.900000E-01   1.00800           0
      2344 MEMB     23       SAPE     O21      OSL     -0.490000       15.9994           0
      2345 MEMB     23       SAPE     C21      CL       0.900000       12.0110           0
      2346 MEMB     23       SAPE     O22      OBL     -0.630000       15.9994           0
      2347 MEMB     23       SAPE     C22      CTL2    -0.220000       12.0110           0
      2348 MEMB     23       SAPE     H2R      HAL2     0.900000E-01   1.00800           0
      2349 MEMB     23       SAPE     H2S      HAL2     0.900000E-01   1.00800           0
      2350 MEMB     23       SAPE     C3       CTL2     0.800000E-01   12.0110           0
      2351 MEMB     23       SAPE     HX       HAL2     0.900000E-01   1.00800           0
      2352 MEMB     23       SAPE     HY       HAL2     0.900000E-01   1.00800           0
      2353 MEMB     23       SAPE     O31      OSL     -0.490000       15.9994           0
      2354 MEMB     23       SAPE     C31      CL       0.900000       12.0110           0
      2355 MEMB     23       SAPE     O32      OBL     -0.630000       15.9994           0
      2356 MEMB     23       SAPE     C32      CTL2    -0.220000       12.0110           0
      2357 MEMB     23       SAPE     H2X      HAL2     0.900000E-01   1.00800           0
      2358 MEMB     23       SAPE     H2Y      HAL2     0.900000E-01   1.00800           0
      2359 MEMB     23       SAPE     C23      CTL2    -0.180000       12.0110           0
      2360 MEMB     23       SAPE     H3R      HAL2     0.900000E-01   1.00800           0
      2361 MEMB     23       SAPE     H3S      HAL2     0.900000E-01   1.00800           0
      2362 MEMB     23       SAPE     C24      CTL2    -0.180000       12.0110           0
      2363 MEMB     23       SAPE     H4R      HAL2     0.900000E-01   1.00800           0
      2364 MEMB     23       SAPE     H4S      HAL2     0.900000E-01   1.00800           0
      2365 MEMB     23       SAPE     C25      CEL1    -0.150000       12.0110           0
      2366 MEMB     23       SAPE     H5R      HEL1     0.150000       1.00800           0
      2367 MEMB     23       SAPE     C26      CEL1    -0.150000       12.0110           0
      2368 MEMB     23       SAPE     H6R      HEL1     0.150000       1.00800           0
      2369 MEMB     23       SAPE     C27      CTL2    -0.180000       12.0110           0
      2370 MEMB     23       SAPE     H7R      HAL2     0.900000E-01   1.00800           0
      2371 MEMB     23       SAPE     H7S      HAL2     0.900000E-01   1.00800           0
      2372 MEMB     23       SAPE     C28      CEL1    -0.150000       12.0110           0
      2373 MEMB     23       SAPE     H8R      HEL1     0.150000       1.00800           0
      2374 MEMB     23       SAPE     C29      CEL1    -0.150000       12.0110           0
      2375 MEMB     23       SAPE     H9R      HEL1     0.150000       1.00800           0
      2376 MEMB     23       SAPE     C210     CTL2    -0.180000       12.0110           0
      2377 MEMB     23       SAPE     H10R     HAL2     0.900000E-01   1.00800           0
      2378 MEMB     23       SAPE     H10S     HAL2     0.900000E-01   1.00800           0
      2379 MEMB     23       SAPE     C211     CEL1    -0.150000       12.0110           0
      2380 MEMB     23       SAPE     H11R     HEL1     0.150000       1.00800           0
      2381 MEMB     23       SAPE     C212     CEL1    -0.150000       12.0110           0
      2382 MEMB     23       SAPE     H12R     HEL1     0.150000       1.00800           0
      2383 MEMB     23       SAPE     C213     CTL2    -0.180000       12.0110           0
      2384 MEMB     23       SAPE     H13R     HAL2     0.900000E-01   1.00800           0
      2385 MEMB     23       SAPE     H13S     HAL2     0.900000E-01   1.00800           0
      2386 MEMB     23       SAPE     C214     CEL1    -0.150000       12.0110           0
      2387 MEMB     23       SAPE     H14R     HEL1     0.150000       1.00800           0
      2388 MEMB     23       SAPE     C215     CEL1    -0.150000       12.0110           0
      2389 MEMB     23       SAPE     H15R     HEL1     0.150000       1.00800           0
      2390 MEMB     23       SAPE     C216     CTL2    -0.180000       12.0110           0
      2391 MEMB     23       SAPE     H16R     HAL2     0.900000E-01   1.00800           0
      2392 MEMB     23       SAPE     H16S     HAL2     0.900000E-01   1.00800           0
      2393 MEMB     23       SAPE     C217     CTL2    -0.180000       12.0110           0
      2394 MEMB     23       SAPE     H17R     HAL2     0.900000E-01   1.00800           0
      2395 MEMB     23       SAPE     H17S     HAL2     0.900000E-01   1.00800           0
      2396 MEMB     23       SAPE     C218     CTL2    -0.180000       12.0110           0
      2397 MEMB     23       SAPE     H18R     HAL2     0.900000E-01   1.00800           0
      2398 MEMB     23       SAPE     H18S     HAL2     0.900000E-01   1.00800           0
      2399 MEMB     23       SAPE     C219     CTL2    -0.180000       12.0110           0
      2400 MEMB     23       SAPE     H19R     HAL2     0.900000E-01   1.00800           0
      2401 MEMB     23       SAPE     H19S     HAL2     0.900000E-01   1.00800           0
      2402 MEMB     23       SAPE     C220     CTL3    -0.270000       12.0110           0
      2403 MEMB     23       SAPE     H20R     HAL3     0.900000E-01   1.00800           0
      2404 MEMB     23       SAPE     H20S     HAL3     0.900000E-01   1.00800           0
      2405 MEMB     23       SAPE     H20T     HAL3     0.900000E-01   1.00800           0
      2406 MEMB     23       SAPE     C33      CTL2    -0.180000       12.0110           0
      2407 MEMB     23       SAPE     H3X      HAL2     0.900000E-01   1.00800           0
      2408 MEMB     23       SAPE     H3Y      HAL2     0.900000E-01   1.00800           0
      2409 MEMB     23       SAPE     C34      CTL2    -0.180000       12.0110           0
      2410 MEMB     23       SAPE     H4X      HAL2     0.900000E-01   1.00800           0
      2411 MEMB     23       SAPE     H4Y      HAL2     0.900000E-01   1.00800           0
      2412 MEMB     23       SAPE     C35      CTL2    -0.180000       12.0110           0
      2413 MEMB     23       SAPE     H5X      HAL2     0.900000E-01   1.00800           0
      2414 MEMB     23       SAPE     H5Y      HAL2     0.900000E-01   1.00800           0
      2415 MEMB     23       SAPE     C36      CTL2    -0.180000       12.0110           0
      2416 MEMB     23       SAPE     H6X      HAL2     0.900000E-01   1.00800           0
      2417 MEMB     23       SAPE     H6Y      HAL2     0.900000E-01   1.00800           0
      2418 MEMB     23       SAPE     C37      CTL2    -0.180000       12.0110           0
      2419 MEMB     23       SAPE     H7X      HAL2     0.900000E-01   1.00800           0
      2420 MEMB     23       SAPE     H7Y      HAL2     0.900000E-01   1.00800           0
      2421 MEMB     23       SAPE     C38      CTL2    -0.180000       12.0110           0
      2422 MEMB     23       SAPE     H8X      HAL2     0.900000E-01   1.00800           0
      2423 MEMB     23       SAPE     H8Y      HAL2     0.900000E-01   1.00800           0
      2424 MEMB     23       SAPE     C39      CTL2    -0.180000       12.0110           0
      2425 MEMB     23       SAPE     H9X      HAL2     0.900000E-01   1.00800           0
      2426 MEMB     23       SAPE     H9Y      HAL2     0.900000E-01   1.00800           0
      2427 MEMB     23       SAPE     C310     CTL2    -0.180000       12.0110           0
      2428 MEMB     23       SAPE     H10X     HAL2     0.900000E-01   1.00800           0
      2429 MEMB     23       SAPE     H10Y     HAL2     0.900000E-01   1.00800           0
      2430 MEMB     23       SAPE     C311     CTL2    -0.180000       12.0110           0
      2431 MEMB     23       SAPE     H11X     HAL2     0.900000E-01   1.00800           0
      2432 MEMB     23       SAPE     H11Y     HAL2     0.900000E-01   1.00800           0
      2433 MEMB     23       SAPE     C312     CTL2    -0.180000       12.0110           0
      2434 MEMB     23       SAPE     H12X     HAL2     0.900000E-01   1.00800           0
      2435 MEMB     23       SAPE     H12Y     HAL2     0.900000E-01   1.00800           0
      2436 MEMB     23       SAPE     C313     CTL2    -0.180000       12.0110           0
      2437 MEMB     23       SAPE     H13X     HAL2     0.900000E-01   1.00800           0
      2438 MEMB     23       SAPE     H13Y     HAL2     0.900000E-01   1.00800           0
      2439 MEMB     23       SAPE     C314     CTL2    -0.180000       12.0110           0
      2440 MEMB     23       SAPE     H14X     HAL2     0.900000E-01   1.00800           0
      2441 MEMB     23       SAPE     H14Y     HAL2     0.900000E-01   1.00800           0
      2442 MEMB     23       SAPE     C315     CTL2    -0.180000       12.0110           0
      2443 MEMB     23       SAPE     H15X     HAL2     0.900000E-01   1.00800           0
      2444 MEMB     23       SAPE     H15Y     HAL2     0.900000E-01   1.00800           0
      2445 MEMB     23       SAPE     C316     CTL2    -0.180000       12.0110           0
      2446 MEMB     23       SAPE     H16X     HAL2     0.900000E-01   1.00800           0
      2447 MEMB     23       SAPE     H16Y     HAL2     0.900000E-01   1.00800           0
      2448 MEMB     23       SAPE     C317     CTL2    -0.180000       12.0110           0
      2449 MEMB     23       SAPE     H17X     HAL2     0.900000E-01   1.00800           0
      2450 MEMB     23       SAPE     H17Y     HAL2     0.900000E-01   1.00800           0
      2451 MEMB     23       SAPE     C318     CTL3    -0.270000       12.0110           0
      2452 MEMB     23       SAPE     H18X     HAL3     0.900000E-01   1.00800           0
      2453 MEMB     23       SAPE     H18Y     HAL3     0.900000E-01   1.00800           0
      2454 MEMB     23       SAPE     H18Z     HAL3     0.900000E-01   1.00800           0
      2455 MEMB     24       SAPS     N        NH3L    -0.300000       14.0070           0
      2456 MEMB     24       SAPS     HN1      HCL      0.330000       1.00800           0
      2457 MEMB     24       SAPS     HN2      HCL      0.330000       1.00800           0
      2458 MEMB     24       SAPS     HN3      HCL      0.330000       1.00800           0
      2459 MEMB     24       SAPS     C12      CTL1     0.210000       12.0110           0
      2460 MEMB     24       SAPS     H12A     HBL      0.100000       1.00800           0
      2461 MEMB     24       SAPS     C13      CCL      0.340000       12.0110           0
      2462 MEMB     24       SAPS     O13A     OCL     -0.670000       15.9994           0
      2463 MEMB     24       SAPS     O13B     OCL     -0.670000       15.9994           0
      2464 MEMB     24       SAPS     C11      CTL2    -0.800000E-01   12.0110           0
      2465 MEMB     24       SAPS     H11A     HAL2     0.900000E-01   1.00800           0
      2466 MEMB     24       SAPS     H11B     HAL2     0.900000E-01   1.00800           0
      2467 MEMB     24       SAPS     P        PL        1.50000       30.9740           0
      2468 MEMB     24       SAPS     O13      O2L     -0.780000       15.9994           0
      2469 MEMB     24       SAPS     O14      O2L     -0.780000       15.9994           0
      2470 MEMB     24       SAPS     O12      OSLP    -0.570000       15.9994           0
      2471 MEMB     24       SAPS     O11      OSLP    -0.570000       15.9994           0
      2472 MEMB     24       SAPS     C1       CTL2    -0.800000E-01   12.0110           0
      2473 MEMB     24       SAPS     HA       HAL2     0.900000E-01   1.00800           0
      2474 MEMB     24       SAPS     HB       HAL2     0.900000E-01   1.00800           0
      2475 MEMB     24       SAPS     C2       CTL1     0.170000       12.0110           0
      2476 MEMB     24       SAPS     HS       HAL1     0.900000E-01   1.00800           0
      2477 MEMB     24       SAPS     O21      OSL     -0.490000       15.9994           0
      2478 MEMB     24       SAPS     C21      CL       0.900000       12.0110           0
      2479 MEMB     24       SAPS     O22      OBL     -0.630000       15.9994           0
      2480 MEMB     24       SAPS     C22      CTL2    -0.220000       12.0110           0
      2481 MEMB     24       SAPS     H2R      HAL2     0.900000E-01   1.00800           0
      2482 MEMB     24       SAPS     H2S      HAL2     0.900000E-01   1.00800           0
      2483 MEMB     24       SAPS     C3       CTL2     0.800000E-01   12.0110           0
      2484 MEMB     24       SAPS     HX       HAL2     0.900000E-01   1.00800           0
      2485 MEMB     24       SAPS     HY       HAL2     0.900000E-01   1.00800           0
      2486 MEMB     24       SAPS     O31      OSL     -0.490000       15.9994           0
      2487 MEMB     24       SAPS     C31      CL       0.900000       12.0110           0
      2488 MEMB     24       SAPS     O32      OBL     -0.630000       15.9994           0
      2489 MEMB     24       SAPS     C32      CTL2    -0.220000       12.0110           0
      2490 MEMB     24       SAPS     H2X      HAL2     0.900000E-01   1.00800           0
      2491 MEMB     24       SAPS     H2Y      HAL2     0.900000E-01   1.00800           0
      2492 MEMB     24       SAPS     C23      CTL2    -0.180000       12.0110           0
      2493 MEMB     24       SAPS     H3R      HAL2     0.900000E-01   1.00800           0
      2494 MEMB     24       SAPS     H3S      HAL2     0.900000E-01   1.00800           0
      2495 MEMB     24       SAPS     C24      CTL2    -0.180000       12.0110           0
      2496 MEMB     24       SAPS     H4R      HAL2     0.900000E-01   1.00800           0
      2497 MEMB     24       SAPS     H4S      HAL2     0.900000E-01   1.00800           0
      2498 MEMB     24       SAPS     C25      CEL1    -0.150000       12.0110           0
      2499 MEMB     24       SAPS     H5R      HEL1     0.150000       1.00800           0
      2500 MEMB     24       SAPS     C26      CEL1    -0.150000       12.0110           0
      2501 MEMB     24       SAPS     H6R      HEL1     0.150000       1.00800           0
      2502 MEMB     24       SAPS     C27      CTL2    -0.180000       12.0110           0
      2503 MEMB     24       SAPS     H7R      HAL2     0.900000E-01   1.00800           0
      2504 MEMB     24       SAPS     H7S      HAL2     0.900000E-01   1.00800           0
      2505 MEMB     24       SAPS     C28      CEL1    -0.150000       12.0110           0
      2506 MEMB     24       SAPS     H8R      HEL1     0.150000       1.00800           0
      2507 MEMB     24       SAPS     C29      CEL1    -0.150000       12.0110           0
      2508 MEMB     24       SAPS     H9R      HEL1     0.150000       1.00800           0
      2509 MEMB     24       SAPS     C210     CTL2    -0.180000       12.0110           0
      2510 MEMB     24       SAPS     H10R     HAL2     0.900000E-01   1.00800           0
      2511 MEMB     24       SAPS     H10S     HAL2     0.900000E-01   1.00800           0
      2512 MEMB     24       SAPS     C211     CEL1    -0.150000       12.0110           0
      2513 MEMB     24       SAPS     H11R     HEL1     0.150000       1.00800           0
      2514 MEMB     24       SAPS     C212     CEL1    -0.150000       12.0110           0
      2515 MEMB     24       SAPS     H12R     HEL1     0.150000       1.00800           0
      2516 MEMB     24       SAPS     C213     CTL2    -0.180000       12.0110           0
      2517 MEMB     24       SAPS     H13R     HAL2     0.900000E-01   1.00800           0
      2518 MEMB     24       SAPS     H13S     HAL2     0.900000E-01   1.00800           0
      2519 MEMB     24       SAPS     C214     CEL1    -0.150000       12.0110           0
      2520 MEMB     24       SAPS     H14R     HEL1     0.150000       1.00800           0
      2521 MEMB     24       SAPS     C215     CEL1    -0.150000       12.0110           0
      2522 MEMB     24       SAPS     H15R     HEL1     0.150000       1.00800           0
      2523 MEMB     24       SAPS     C216     CTL2    -0.180000       12.0110           0
      2524 MEMB     24       SAPS     H16R     HAL2     0.900000E-01   1.00800           0
      2525 MEMB     24       SAPS     H16S     HAL2     0.900000E-01   1.00800           0
      2526 MEMB     24       SAPS     C217     CTL2    -0.180000       12.0110           0
      2527 MEMB     24       SAPS     H17R     HAL2     0.900000E-01   1.00800           0
      2528 MEMB     24       SAPS     H17S     HAL2     0.900000E-01   1.00800           0
      2529 MEMB     24       SAPS     C218     CTL2    -0.180000       12.0110           0
      2530 MEMB     24       SAPS     H18R     HAL2     0.900000E-01   1.00800           0
      2531 MEMB     24       SAPS     H18S     HAL2     0.900000E-01   1.00800           0
      2532 MEMB     24       SAPS     C219     CTL2    -0.180000       12.0110           0
      2533 MEMB     24       SAPS     H19R     HAL2     0.900000E-01   1.00800           0
      2534 MEMB     24       SAPS     H19S     HAL2     0.900000E-01   1.00800           0
      2535 MEMB     24       SAPS     C220     CTL3    -0.270000       12.0110           0
      2536 MEMB     24       SAPS     H20R     HAL3     0.900000E-01   1.00800           0
      2537 MEMB     24       SAPS     H20S     HAL3     0.900000E-01   1.00800           0
      2538 MEMB     24       SAPS     H20T     HAL3     0.900000E-01   1.00800           0
      2539 MEMB     24       SAPS     C33      CTL2    -0.180000       12.0110           0
      2540 MEMB     24       SAPS     H3X      HAL2     0.900000E-01   1.00800           0
      2541 MEMB     24       SAPS     H3Y      HAL2     0.900000E-01   1.00800           0
      2542 MEMB     24       SAPS     C34      CTL2    -0.180000       12.0110           0
      2543 MEMB     24       SAPS     H4X      HAL2     0.900000E-01   1.00800           0
      2544 MEMB     24       SAPS     H4Y      HAL2     0.900000E-01   1.00800           0
      2545 MEMB     24       SAPS     C35      CTL2    -0.180000       12.0110           0
      2546 MEMB     24       SAPS     H5X      HAL2     0.900000E-01   1.00800           0
      2547 MEMB     24       SAPS     H5Y      HAL2     0.900000E-01   1.00800           0
      2548 MEMB     24       SAPS     C36      CTL2    -0.180000       12.0110           0
      2549 MEMB     24       SAPS     H6X      HAL2     0.900000E-01   1.00800           0
      2550 MEMB     24       SAPS     H6Y      HAL2     0.900000E-01   1.00800           0
      2551 MEMB     24       SAPS     C37      CTL2    -0.180000       12.0110           0
      2552 MEMB     24       SAPS     H7X      HAL2     0.900000E-01   1.00800           0
      2553 MEMB     24       SAPS     H7Y      HAL2     0.900000E-01   1.00800           0
      2554 MEMB     24       SAPS     C38      CTL2    -0.180000       12.0110           0
      2555 MEMB     24       SAPS     H8X      HAL2     0.900000E-01   1.00800           0
      2556 MEMB     24       SAPS     H8Y      HAL2     0.900000E-01   1.00800           0
      2557 MEMB     24       SAPS     C39      CTL2    -0.180000       12.0110           0
      2558 MEMB     24       SAPS     H9X      HAL2     0.900000E-01   1.00800           0
      2559 MEMB     24       SAPS     H9Y      HAL2     0.900000E-01   1.00800           0
      2560 MEMB     24       SAPS     C310     CTL2    -0.180000       12.0110           0
      2561 MEMB     24       SAPS     H10X     HAL2     0.900000E-01   1.00800           0
      2562 MEMB     24       SAPS     H10Y     HAL2     0.900000E-01   1.00800           0
      2563 MEMB     24       SAPS     C311     CTL2    -0.180000       12.0110           0
      2564 MEMB     24       SAPS     H11X     HAL2     0.900000E-01   1.00800           0
      2565 MEMB     24       SAPS     H11Y     HAL2     0.900000E-01   1.00800           0
      2566 MEMB     24       SAPS     C312     CTL2    -0.180000       12.0110           0
      2567 MEMB     24       SAPS     H12X     HAL2     0.900000E-01   1.00800           0
      2568 MEMB     24       SAPS     H12Y     HAL2     0.900000E-01   1.00800           0
      2569 MEMB     24       SAPS     C313     CTL2    -0.180000       12.0110           0
      2570 MEMB     24       SAPS     H13X     HAL2     0.900000E-01   1.00800           0
      2571 MEMB     24       SAPS     H13Y     HAL2     0.900000E-01   1.00800           0
      2572 MEMB     24       SAPS     C314     CTL2    -0.180000       12.0110           0
      2573 MEMB     24       SAPS     H14X     HAL2     0.900000E-01   1.00800           0
      2574 MEMB     24       SAPS     H14Y     HAL2     0.900000E-01   1.00800           0
      2575 MEMB     24       SAPS     C315     CTL2    -0.180000       12.0110           0
      2576 MEMB     24       SAPS     H15X     HAL2     0.900000E-01   1.00800           0
      2577 MEMB     24       SAPS     H15Y     HAL2     0.900000E-01   1.00800           0
      2578 MEMB     24       SAPS     C316     CTL2    -0.180000       12.0110           0
      2579 MEMB     24       SAPS     H16X     HAL2     0.900000E-01   1.00800           0
      2580 MEMB     24       SAPS     H16Y     HAL2     0.900000E-01   1.00800           0
      2581 MEMB     24       SAPS     C317     CTL2    -0.180000       12.0110           0
      2582 MEMB     24       SAPS     H17X     HAL2     0.900000E-01   1.00800           0
      2583 MEMB     24       SAPS     H17Y     HAL2     0.900000E-01   1.00800           0
      2584 MEMB     24       SAPS     C318     CTL3    -0.270000       12.0110           0
      2585 MEMB     24       SAPS     H18X     HAL3     0.900000E-01   1.00800           0
      2586 MEMB     24       SAPS     H18Y     HAL3     0.900000E-01   1.00800           0
      2587 MEMB     24       SAPS     H18Z     HAL3     0.900000E-01   1.00800           0
      2588 MEMB     25       SAPS     N        NH3L    -0.300000       14.0070           0
      2589 MEMB     25       SAPS     HN1      HCL      0.330000       1.00800           0
      2590 MEMB     25       SAPS     HN2      HCL      0.330000       1.00800           0
      2591 MEMB     25       SAPS     HN3      HCL      0.330000       1.00800           0
      2592 MEMB     25       SAPS     C12      CTL1     0.210000       12.0110           0
      2593 MEMB     25       SAPS     H12A     HBL      0.100000       1.00800           0
      2594 MEMB     25       SAPS     C13      CCL      0.340000       12.0110           0
      2595 MEMB     25       SAPS     O13A     OCL     -0.670000       15.9994           0
      2596 MEMB     25       SAPS     O13B     OCL     -0.670000       15.9994           0
      2597 MEMB     25       SAPS     C11      CTL2    -0.800000E-01   12.0110           0
      2598 MEMB     25       SAPS     H11A     HAL2     0.900000E-01   1.00800           0
      2599 MEMB     25       SAPS     H11B     HAL2     0.900000E-01   1.00800           0
      2600 MEMB     25       SAPS     P        PL        1.50000       30.9740           0
      2601 MEMB     25       SAPS     O13      O2L     -0.780000       15.9994           0
      2602 MEMB     25       SAPS     O14      O2L     -0.780000       15.9994           0
      2603 MEMB     25       SAPS     O12      OSLP    -0.570000       15.9994           0
      2604 MEMB     25       SAPS     O11      OSLP    -0.570000       15.9994           0
      2605 MEMB     25       SAPS     C1       CTL2    -0.800000E-01   12.0110           0
      2606 MEMB     25       SAPS     HA       HAL2     0.900000E-01   1.00800           0
      2607 MEMB     25       SAPS     HB       HAL2     0.900000E-01   1.00800           0
      2608 MEMB     25       SAPS     C2       CTL1     0.170000       12.0110           0
      2609 MEMB     25       SAPS     HS       HAL1     0.900000E-01   1.00800           0
      2610 MEMB     25       SAPS     O21      OSL     -0.490000       15.9994           0
      2611 MEMB     25       SAPS     C21      CL       0.900000       12.0110           0
      2612 MEMB     25       SAPS     O22      OBL     -0.630000       15.9994           0
      2613 MEMB     25       SAPS     C22      CTL2    -0.220000       12.0110           0
      2614 MEMB     25       SAPS     H2R      HAL2     0.900000E-01   1.00800           0
      2615 MEMB     25       SAPS     H2S      HAL2     0.900000E-01   1.00800           0
      2616 MEMB     25       SAPS     C3       CTL2     0.800000E-01   12.0110           0
      2617 MEMB     25       SAPS     HX       HAL2     0.900000E-01   1.00800           0
      2618 MEMB     25       SAPS     HY       HAL2     0.900000E-01   1.00800           0
      2619 MEMB     25       SAPS     O31      OSL     -0.490000       15.9994           0
      2620 MEMB     25       SAPS     C31      CL       0.900000       12.0110           0
      2621 MEMB     25       SAPS     O32      OBL     -0.630000       15.9994           0
      2622 MEMB     25       SAPS     C32      CTL2    -0.220000       12.0110           0
      2623 MEMB     25       SAPS     H2X      HAL2     0.900000E-01   1.00800           0
      2624 MEMB     25       SAPS     H2Y      HAL2     0.900000E-01   1.00800           0
      2625 MEMB     25       SAPS     C23      CTL2    -0.180000       12.0110           0
      2626 MEMB     25       SAPS     H3R      HAL2     0.900000E-01   1.00800           0
      2627 MEMB     25       SAPS     H3S      HAL2     0.900000E-01   1.00800           0
      2628 MEMB     25       SAPS     C24      CTL2    -0.180000       12.0110           0
      2629 MEMB     25       SAPS     H4R      HAL2     0.900000E-01   1.00800           0
      2630 MEMB     25       SAPS     H4S      HAL2     0.900000E-01   1.00800           0
      2631 MEMB     25       SAPS     C25      CEL1    -0.150000       12.0110           0
      2632 MEMB     25       SAPS     H5R      HEL1     0.150000       1.00800           0
      2633 MEMB     25       SAPS     C26      CEL1    -0.150000       12.0110           0
      2634 MEMB     25       SAPS     H6R      HEL1     0.150000       1.00800           0
      2635 MEMB     25       SAPS     C27      CTL2    -0.180000       12.0110           0
      2636 MEMB     25       SAPS     H7R      HAL2     0.900000E-01   1.00800           0
      2637 MEMB     25       SAPS     H7S      HAL2     0.900000E-01   1.00800           0
      2638 MEMB     25       SAPS     C28      CEL1    -0.150000       12.0110           0
      2639 MEMB     25       SAPS     H8R      HEL1     0.150000       1.00800           0
      2640 MEMB     25       SAPS     C29      CEL1    -0.150000       12.0110           0
      2641 MEMB     25       SAPS     H9R      HEL1     0.150000       1.00800           0
      2642 MEMB     25       SAPS     C210     CTL2    -0.180000       12.0110           0
      2643 MEMB     25       SAPS     H10R     HAL2     0.900000E-01   1.00800           0
      2644 MEMB     25       SAPS     H10S     HAL2     0.900000E-01   1.00800           0
      2645 MEMB     25       SAPS     C211     CEL1    -0.150000       12.0110           0
      2646 MEMB     25       SAPS     H11R     HEL1     0.150000       1.00800           0
      2647 MEMB     25       SAPS     C212     CEL1    -0.150000       12.0110           0
      2648 MEMB     25       SAPS     H12R     HEL1     0.150000       1.00800           0
      2649 MEMB     25       SAPS     C213     CTL2    -0.180000       12.0110           0
      2650 MEMB     25       SAPS     H13R     HAL2     0.900000E-01   1.00800           0
      2651 MEMB     25       SAPS     H13S     HAL2     0.900000E-01   1.00800           0
      2652 MEMB     25       SAPS     C214     CEL1    -0.150000       12.0110           0
      2653 MEMB     25       SAPS     H14R     HEL1     0.150000       1.00800           0
      2654 MEMB     25       SAPS     C215     CEL1    -0.150000       12.0110           0
      2655 MEMB     25       SAPS     H15R     HEL1     0.150000       1.00800           0
      2656 MEMB     25       SAPS     C216     CTL2    -0.180000       12.0110           0
      2657 MEMB     25       SAPS     H16R     HAL2     0.900000E-01   1.00800           0
      2658 MEMB     25       SAPS     H16S     HAL2     0.900000E-01   1.00800           0
      2659 MEMB     25       SAPS     C217     CTL2    -0.180000       12.0110           0
      2660 MEMB     25       SAPS     H17R     HAL2     0.900000E-01   1.00800           0
      2661 MEMB     25       SAPS     H17S     HAL2     0.900000E-01   1.00800           0
      2662 MEMB     25       SAPS     C218     CTL2    -0.180000       12.0110           0
      2663 MEMB     25       SAPS     H18R     HAL2     0.900000E-01   1.00800           0
      2664 MEMB     25       SAPS     H18S     HAL2     0.900000E-01   1.00800           0
      2665 MEMB     25       SAPS     C219     CTL2    -0.180000       12.0110           0
      2666 MEMB     25       SAPS     H19R     HAL2     0.900000E-01   1.00800           0
      2667 MEMB     25       SAPS     H19S     HAL2     0.900000E-01   1.00800           0
      2668 MEMB     25       SAPS     C220     CTL3    -0.270000       12.0110           0
      2669 MEMB     25       SAPS     H20R     HAL3     0.900000E-01   1.00800           0
      2670 MEMB     25       SAPS     H20S     HAL3     0.900000E-01   1.00800           0
      2671 MEMB     25       SAPS     H20T     HAL3     0.900000E-01   1.00800           0
      2672 MEMB     25       SAPS     C33      CTL2    -0.180000       12.0110           0
      2673 MEMB     25       SAPS     H3X      HAL2     0.900000E-01   1.00800           0
      2674 MEMB     25       SAPS     H3Y      HAL2     0.900000E-01   1.00800           0
      2675 MEMB     25       SAPS     C34      CTL2    -0.180000       12.0110           0
      2676 MEMB     25       SAPS     H4X      HAL2     0.900000E-01   1.00800           0
      2677 MEMB     25       SAPS     H4Y      HAL2     0.900000E-01   1.00800           0
      2678 MEMB     25       SAPS     C35      CTL2    -0.180000       12.0110           0
      2679 MEMB     25       SAPS     H5X      HAL2     0.900000E-01   1.00800           0
      2680 MEMB     25       SAPS     H5Y      HAL2     0.900000E-01   1.00800           0
      2681 MEMB     25       SAPS     C36      CTL2    -0.180000       12.0110           0
      2682 MEMB     25       SAPS     H6X      HAL2     0.900000E-01   1.00800           0
      2683 MEMB     25       SAPS     H6Y      HAL2     0.900000E-01   1.00800           0
      2684 MEMB     25       SAPS     C37      CTL2    -0.180000       12.0110           0
      2685 MEMB     25       SAPS     H7X      HAL2     0.900000E-01   1.00800           0
      2686 MEMB     25       SAPS     H7Y      HAL2     0.900000E-01   1.00800           0
      2687 MEMB     25       SAPS     C38      CTL2    -0.180000       12.0110           0
      2688 MEMB     25       SAPS     H8X      HAL2     0.900000E-01   1.00800           0
      2689 MEMB     25       SAPS     H8Y      HAL2     0.900000E-01   1.00800           0
      2690 MEMB     25       SAPS     C39      CTL2    -0.180000       12.0110           0
      2691 MEMB     25       SAPS     H9X      HAL2     0.900000E-01   1.00800           0
      2692 MEMB     25       SAPS     H9Y      HAL2     0.900000E-01   1.00800           0
      2693 MEMB     25       SAPS     C310     CTL2    -0.180000       12.0110           0
      2694 MEMB     25       SAPS     H10X     HAL2     0.900000E-01   1.00800           0
      2695 MEMB     25       SAPS     H10Y     HAL2     0.900000E-01   1.00800           0
      2696 MEMB     25       SAPS     C311     CTL2    -0.180000       12.0110           0
      2697 MEMB     25       SAPS     H11X     HAL2     0.900000E-01   1.00800           0
      2698 MEMB     25       SAPS     H11Y     HAL2     0.900000E-01   1.00800           0
      2699 MEMB     25       SAPS     C312     CTL2    -0.180000       12.0110           0
      2700 MEMB     25       SAPS     H12X     HAL2     0.900000E-01   1.00800           0
      2701 MEMB     25       SAPS     H12Y     HAL2     0.900000E-01   1.00800           0
      2702 MEMB     25       SAPS     C313     CTL2    -0.180000       12.0110           0
      2703 MEMB     25       SAPS     H13X     HAL2     0.900000E-01   1.00800           0
      2704 MEMB     25       SAPS     H13Y     HAL2     0.900000E-01   1.00800           0
      2705 MEMB     25       SAPS     C314     CTL2    -0.180000       12.0110           0
      2706 MEMB     25       SAPS     H14X     HAL2     0.900000E-01   1.00800           0
      2707 MEMB     25       SAPS     H14Y     HAL2     0.900000E-01   1.00800           0
      2708 MEMB     25       SAPS     C315     CTL2    -0.180000       12.0110           0
      2709 MEMB     25       SAPS     H15X     HAL2     0.900000E-01   1.00800           0
      2710 MEMB     25       SAPS     H15Y     HAL2     0.900000E-01   1.00800           0
      2711 MEMB     25       SAPS     C316     CTL2    -0.180000       12.0110           0
      2712 MEMB     25       SAPS     H16X     HAL2     0.900000E-01   1.00800           0
      2713 MEMB     25       SAPS     H16Y     HAL2     0.900000E-01   1.00800           0
      2714 MEMB     25       SAPS     C317     CTL2    -0.180000       12.0110           0
      2715 MEMB     25       SAPS     H17X     HAL2     0.900000E-01   1.00800           0
      2716 MEMB     25       SAPS     H17Y     HAL2     0.900000E-01   1.00800           0
      2717 MEMB     25       SAPS     C318     CTL3    -0.270000       12.0110           0
      2718 MEMB     25       SAPS     H18X     HAL3     0.900000E-01   1.00800           0
      2719 MEMB     25       SAPS     H18Y     HAL3     0.900000E-01   1.00800           0
      2720 MEMB     25       SAPS     H18Z     HAL3     0.900000E-01   1.00800           0
      2721 MEMB     26       SAPS     N        NH3L    -0.300000       14.0070           0
      2722 MEMB     26       SAPS     HN1      HCL      0.330000       1.00800           0
      2723 MEMB     26       SAPS     HN2      HCL      0.330000       1.00800           0
      2724 MEMB     26       SAPS     HN3      HCL      0.330000       1.00800           0
      2725 MEMB     26       SAPS     C12      CTL1     0.210000       12.0110           0
      2726 MEMB     26       SAPS     H12A     HBL      0.100000       1.00800           0
      2727 MEMB     26       SAPS     C13      CCL      0.340000       12.0110           0
      2728 MEMB     26       SAPS     O13A     OCL     -0.670000       15.9994           0
      2729 MEMB     26       SAPS     O13B     OCL     -0.670000       15.9994           0
      2730 MEMB     26       SAPS     C11      CTL2    -0.800000E-01   12.0110           0
      2731 MEMB     26       SAPS     H11A     HAL2     0.900000E-01   1.00800           0
      2732 MEMB     26       SAPS     H11B     HAL2     0.900000E-01   1.00800           0
      2733 MEMB     26       SAPS     P        PL        1.50000       30.9740           0
      2734 MEMB     26       SAPS     O13      O2L     -0.780000       15.9994           0
      2735 MEMB     26       SAPS     O14      O2L     -0.780000       15.9994           0
      2736 MEMB     26       SAPS     O12      OSLP    -0.570000       15.9994           0
      2737 MEMB     26       SAPS     O11      OSLP    -0.570000       15.9994           0
      2738 MEMB     26       SAPS     C1       CTL2    -0.800000E-01   12.0110           0
      2739 MEMB     26       SAPS     HA       HAL2     0.900000E-01   1.00800           0
      2740 MEMB     26       SAPS     HB       HAL2     0.900000E-01   1.00800           0
      2741 MEMB     26       SAPS     C2       CTL1     0.170000       12.0110           0
      2742 MEMB     26       SAPS     HS       HAL1     0.900000E-01   1.00800           0
      2743 MEMB     26       SAPS     O21      OSL     -0.490000       15.9994           0
      2744 MEMB     26       SAPS     C21      CL       0.900000       12.0110           0
      2745 MEMB     26       SAPS     O22      OBL     -0.630000       15.9994           0
      2746 MEMB     26       SAPS     C22      CTL2    -0.220000       12.0110           0
      2747 MEMB     26       SAPS     H2R      HAL2     0.900000E-01   1.00800           0
      2748 MEMB     26       SAPS     H2S      HAL2     0.900000E-01   1.00800           0
      2749 MEMB     26       SAPS     C3       CTL2     0.800000E-01   12.0110           0
      2750 MEMB     26       SAPS     HX       HAL2     0.900000E-01   1.00800           0
      2751 MEMB     26       SAPS     HY       HAL2     0.900000E-01   1.00800           0
      2752 MEMB     26       SAPS     O31      OSL     -0.490000       15.9994           0
      2753 MEMB     26       SAPS     C31      CL       0.900000       12.0110           0
      2754 MEMB     26       SAPS     O32      OBL     -0.630000       15.9994           0
      2755 MEMB     26       SAPS     C32      CTL2    -0.220000       12.0110           0
      2756 MEMB     26       SAPS     H2X      HAL2     0.900000E-01   1.00800           0
      2757 MEMB     26       SAPS     H2Y      HAL2     0.900000E-01   1.00800           0
      2758 MEMB     26       SAPS     C23      CTL2    -0.180000       12.0110           0
      2759 MEMB     26       SAPS     H3R      HAL2     0.900000E-01   1.00800           0
      2760 MEMB     26       SAPS     H3S      HAL2     0.900000E-01   1.00800           0
      2761 MEMB     26       SAPS     C24      CTL2    -0.180000       12.0110           0
      2762 MEMB     26       SAPS     H4R      HAL2     0.900000E-01   1.00800           0
      2763 MEMB     26       SAPS     H4S      HAL2     0.900000E-01   1.00800           0
      2764 MEMB     26       SAPS     C25      CEL1    -0.150000       12.0110           0
      2765 MEMB     26       SAPS     H5R      HEL1     0.150000       1.00800           0
      2766 MEMB     26       SAPS     C26      CEL1    -0.150000       12.0110           0
      2767 MEMB     26       SAPS     H6R      HEL1     0.150000       1.00800           0
      2768 MEMB     26       SAPS     C27      CTL2    -0.180000       12.0110           0
      2769 MEMB     26       SAPS     H7R      HAL2     0.900000E-01   1.00800           0
      2770 MEMB     26       SAPS     H7S      HAL2     0.900000E-01   1.00800           0
      2771 MEMB     26       SAPS     C28      CEL1    -0.150000       12.0110           0
      2772 MEMB     26       SAPS     H8R      HEL1     0.150000       1.00800           0
      2773 MEMB     26       SAPS     C29      CEL1    -0.150000       12.0110           0
      2774 MEMB     26       SAPS     H9R      HEL1     0.150000       1.00800           0
      2775 MEMB     26       SAPS     C210     CTL2    -0.180000       12.0110           0
      2776 MEMB     26       SAPS     H10R     HAL2     0.900000E-01   1.00800           0
      2777 MEMB     26       SAPS     H10S     HAL2     0.900000E-01   1.00800           0
      2778 MEMB     26       SAPS     C211     CEL1    -0.150000       12.0110           0
      2779 MEMB     26       SAPS     H11R     HEL1     0.150000       1.00800           0
      2780 MEMB     26       SAPS     C212     CEL1    -0.150000       12.0110           0
      2781 MEMB     26       SAPS     H12R     HEL1     0.150000       1.00800           0
      2782 MEMB     26       SAPS     C213     CTL2    -0.180000       12.0110           0
      2783 MEMB     26       SAPS     H13R     HAL2     0.900000E-01   1.00800           0
      2784 MEMB     26       SAPS     H13S     HAL2     0.900000E-01   1.00800           0
      2785 MEMB     26       SAPS     C214     CEL1    -0.150000       12.0110           0
      2786 MEMB     26       SAPS     H14R     HEL1     0.150000       1.00800           0
      2787 MEMB     26       SAPS     C215     CEL1    -0.150000       12.0110           0
      2788 MEMB     26       SAPS     H15R     HEL1     0.150000       1.00800           0
      2789 MEMB     26       SAPS     C216     CTL2    -0.180000       12.0110           0
      2790 MEMB     26       SAPS     H16R     HAL2     0.900000E-01   1.00800           0
      2791 MEMB     26       SAPS     H16S     HAL2     0.900000E-01   1.00800           0
      2792 MEMB     26       SAPS     C217     CTL2    -0.180000       12.0110           0
      2793 MEMB     26       SAPS     H17R     HAL2     0.900000E-01   1.00800           0
      2794 MEMB     26       SAPS     H17S     HAL2     0.900000E-01   1.00800           0
      2795 MEMB     26       SAPS     C218     CTL2    -0.180000       12.0110           0
      2796 MEMB     26       SAPS     H18R     HAL2     0.900000E-01   1.00800           0
      2797 MEMB     26       SAPS     H18S     HAL2     0.900000E-01   1.00800           0
      2798 MEMB     26       SAPS     C219     CTL2    -0.180000       12.0110           0
      2799 MEMB     26       SAPS     H19R     HAL2     0.900000E-01   1.00800           0
      2800 MEMB     26       SAPS     H19S     HAL2     0.900000E-01   1.00800           0
      2801 MEMB     26       SAPS     C220     CTL3    -0.270000       12.0110           0
      2802 MEMB     26       SAPS     H20R     HAL3     0.900000E-01   1.00800           0
      2803 MEMB     26       SAPS     H20S     HAL3     0.900000E-01   1.00800           0
      2804 MEMB     26       SAPS     H20T     HAL3     0.900000E-01   1.00800           0
      2805 MEMB     26       SAPS     C33      CTL2    -0.180000       12.0110           0
      2806 MEMB     26       SAPS     H3X      HAL2     0.900000E-01   1.00800           0
      2807 MEMB     26       SAPS     H3Y      HAL2     0.900000E-01   1.00800           0
      2808 MEMB     26       SAPS     C34      CTL2    -0.180000       12.0110           0
      2809 MEMB     26       SAPS     H4X      HAL2     0.900000E-01   1.00800           0
      2810 MEMB     26       SAPS     H4Y      HAL2     0.900000E-01   1.00800           0
      2811 MEMB     26       SAPS     C35      CTL2    -0.180000       12.0110           0
      2812 MEMB     26       SAPS     H5X      HAL2     0.900000E-01   1.00800           0
      2813 MEMB     26       SAPS     H5Y      HAL2     0.900000E-01   1.00800           0
      2814 MEMB     26       SAPS     C36      CTL2    -0.180000       12.0110           0
      2815 MEMB     26       SAPS     H6X      HAL2     0.900000E-01   1.00800           0
      2816 MEMB     26       SAPS     H6Y      HAL2     0.900000E-01   1.00800           0
      2817 MEMB     26       SAPS     C37      CTL2    -0.180000       12.0110           0
      2818 MEMB     26       SAPS     H7X      HAL2     0.900000E-01   1.00800           0
      2819 MEMB     26       SAPS     H7Y      HAL2     0.900000E-01   1.00800           0
      2820 MEMB     26       SAPS     C38      CTL2    -0.180000       12.0110           0
      2821 MEMB     26       SAPS     H8X      HAL2     0.900000E-01   1.00800           0
      2822 MEMB     26       SAPS     H8Y      HAL2     0.900000E-01   1.00800           0
      2823 MEMB     26       SAPS     C39      CTL2    -0.180000       12.0110           0
      2824 MEMB     26       SAPS     H9X      HAL2     0.900000E-01   1.00800           0
      2825 MEMB     26       SAPS     H9Y      HAL2     0.900000E-01   1.00800           0
      2826 MEMB     26       SAPS     C310     CTL2    -0.180000       12.0110           0
      2827 MEMB     26       SAPS     H10X     HAL2     0.900000E-01   1.00800           0
      2828 MEMB     26       SAPS     H10Y     HAL2     0.900000E-01   1.00800           0
      2829 MEMB     26       SAPS     C311     CTL2    -0.180000       12.0110           0
      2830 MEMB     26       SAPS     H11X     HAL2     0.900000E-01   1.00800           0
      2831 MEMB     26       SAPS     H11Y     HAL2     0.900000E-01   1.00800           0
      2832 MEMB     26       SAPS     C312     CTL2    -0.180000       12.0110           0
      2833 MEMB     26       SAPS     H12X     HAL2     0.900000E-01   1.00800           0
      2834 MEMB     26       SAPS     H12Y     HAL2     0.900000E-01   1.00800           0
      2835 MEMB     26       SAPS     C313     CTL2    -0.180000       12.0110           0
      2836 MEMB     26       SAPS     H13X     HAL2     0.900000E-01   1.00800           0
      2837 MEMB     26       SAPS     H13Y     HAL2     0.900000E-01   1.00800           0
      2838 MEMB     26       SAPS     C314     CTL2    -0.180000       12.0110           0
      2839 MEMB     26       SAPS     H14X     HAL2     0.900000E-01   1.00800           0
      2840 MEMB     26       SAPS     H14Y     HAL2     0.900000E-01   1.00800           0
      2841 MEMB     26       SAPS     C315     CTL2    -0.180000       12.0110           0
      2842 MEMB     26       SAPS     H15X     HAL2     0.900000E-01   1.00800           0
      2843 MEMB     26       SAPS     H15Y     HAL2     0.900000E-01   1.00800           0
      2844 MEMB     26       SAPS     C316     CTL2    -0.180000       12.0110           0
      2845 MEMB     26       SAPS     H16X     HAL2     0.900000E-01   1.00800           0
      2846 MEMB     26       SAPS     H16Y     HAL2     0.900000E-01   1.00800           0
      2847 MEMB     26       SAPS     C317     CTL2    -0.180000       12.0110           0
      2848 MEMB     26       SAPS     H17X     HAL2     0.900000E-01   1.00800           0
      2849 MEMB     26       SAPS     H17Y     HAL2     0.900000E-01   1.00800           0
      2850 MEMB     26       SAPS     C318     CTL3    -0.270000       12.0110           0
      2851 MEMB     26       SAPS     H18X     HAL3     0.900000E-01   1.00800           0
      2852 MEMB     26       SAPS     H18Y     HAL3     0.900000E-01   1.00800           0
      2853 MEMB     26       SAPS     H18Z     HAL3     0.900000E-01   1.00800           0
      2854 MEMB     27       SAPE     N        NH3L    -0.300000       14.0070           0
      2855 MEMB     27       SAPE     HN1      HCL      0.330000       1.00800           0
      2856 MEMB     27       SAPE     HN2      HCL      0.330000       1.00800           0
      2857 MEMB     27       SAPE     HN3      HCL      0.330000       1.00800           0
      2858 MEMB     27       SAPE     C12      CTL2     0.130000       12.0110           0
      2859 MEMB     27       SAPE     H12A     HAL2     0.900000E-01   1.00800           0
      2860 MEMB     27       SAPE     H12B     HAL2     0.900000E-01   1.00800           0
      2861 MEMB     27       SAPE     C11      CTL2    -0.800000E-01   12.0110           0
      2862 MEMB     27       SAPE     H11A     HAL2     0.900000E-01   1.00800           0
      2863 MEMB     27       SAPE     H11B     HAL2     0.900000E-01   1.00800           0
      2864 MEMB     27       SAPE     P        PL        1.50000       30.9740           0
      2865 MEMB     27       SAPE     O13      O2L     -0.780000       15.9994           0
      2866 MEMB     27       SAPE     O14      O2L     -0.780000       15.9994           0
      2867 MEMB     27       SAPE     O12      OSLP    -0.570000       15.9994           0
      2868 MEMB     27       SAPE     O11      OSLP    -0.570000       15.9994           0
      2869 MEMB     27       SAPE     C1       CTL2    -0.800000E-01   12.0110           0
      2870 MEMB     27       SAPE     HA       HAL2     0.900000E-01   1.00800           0
      2871 MEMB     27       SAPE     HB       HAL2     0.900000E-01   1.00800           0
      2872 MEMB     27       SAPE     C2       CTL1     0.170000       12.0110           0
      2873 MEMB     27       SAPE     HS       HAL1     0.900000E-01   1.00800           0
      2874 MEMB     27       SAPE     O21      OSL     -0.490000       15.9994           0
      2875 MEMB     27       SAPE     C21      CL       0.900000       12.0110           0
      2876 MEMB     27       SAPE     O22      OBL     -0.630000       15.9994           0
      2877 MEMB     27       SAPE     C22      CTL2    -0.220000       12.0110           0
      2878 MEMB     27       SAPE     H2R      HAL2     0.900000E-01   1.00800           0
      2879 MEMB     27       SAPE     H2S      HAL2     0.900000E-01   1.00800           0
      2880 MEMB     27       SAPE     C3       CTL2     0.800000E-01   12.0110           0
      2881 MEMB     27       SAPE     HX       HAL2     0.900000E-01   1.00800           0
      2882 MEMB     27       SAPE     HY       HAL2     0.900000E-01   1.00800           0
      2883 MEMB     27       SAPE     O31      OSL     -0.490000       15.9994           0
      2884 MEMB     27       SAPE     C31      CL       0.900000       12.0110           0
      2885 MEMB     27       SAPE     O32      OBL     -0.630000       15.9994           0
      2886 MEMB     27       SAPE     C32      CTL2    -0.220000       12.0110           0
      2887 MEMB     27       SAPE     H2X      HAL2     0.900000E-01   1.00800           0
      2888 MEMB     27       SAPE     H2Y      HAL2     0.900000E-01   1.00800           0
      2889 MEMB     27       SAPE     C23      CTL2    -0.180000       12.0110           0
      2890 MEMB     27       SAPE     H3R      HAL2     0.900000E-01   1.00800           0
      2891 MEMB     27       SAPE     H3S      HAL2     0.900000E-01   1.00800           0
      2892 MEMB     27       SAPE     C24      CTL2    -0.180000       12.0110           0
      2893 MEMB     27       SAPE     H4R      HAL2     0.900000E-01   1.00800           0
      2894 MEMB     27       SAPE     H4S      HAL2     0.900000E-01   1.00800           0
      2895 MEMB     27       SAPE     C25      CEL1    -0.150000       12.0110           0
      2896 MEMB     27       SAPE     H5R      HEL1     0.150000       1.00800           0
      2897 MEMB     27       SAPE     C26      CEL1    -0.150000       12.0110           0
      2898 MEMB     27       SAPE     H6R      HEL1     0.150000       1.00800           0
      2899 MEMB     27       SAPE     C27      CTL2    -0.180000       12.0110           0
      2900 MEMB     27       SAPE     H7R      HAL2     0.900000E-01   1.00800           0
      2901 MEMB     27       SAPE     H7S      HAL2     0.900000E-01   1.00800           0
      2902 MEMB     27       SAPE     C28      CEL1    -0.150000       12.0110           0
      2903 MEMB     27       SAPE     H8R      HEL1     0.150000       1.00800           0
      2904 MEMB     27       SAPE     C29      CEL1    -0.150000       12.0110           0
      2905 MEMB     27       SAPE     H9R      HEL1     0.150000       1.00800           0
      2906 MEMB     27       SAPE     C210     CTL2    -0.180000       12.0110           0
      2907 MEMB     27       SAPE     H10R     HAL2     0.900000E-01   1.00800           0
      2908 MEMB     27       SAPE     H10S     HAL2     0.900000E-01   1.00800           0
      2909 MEMB     27       SAPE     C211     CEL1    -0.150000       12.0110           0
      2910 MEMB     27       SAPE     H11R     HEL1     0.150000       1.00800           0
      2911 MEMB     27       SAPE     C212     CEL1    -0.150000       12.0110           0
      2912 MEMB     27       SAPE     H12R     HEL1     0.150000       1.00800           0
      2913 MEMB     27       SAPE     C213     CTL2    -0.180000       12.0110           0
      2914 MEMB     27       SAPE     H13R     HAL2     0.900000E-01   1.00800           0
      2915 MEMB     27       SAPE     H13S     HAL2     0.900000E-01   1.00800           0
      2916 MEMB     27       SAPE     C214     CEL1    -0.150000       12.0110           0
      2917 MEMB     27       SAPE     H14R     HEL1     0.150000       1.00800           0
      2918 MEMB     27       SAPE     C215     CEL1    -0.150000       12.0110           0
      2919 MEMB     27       SAPE     H15R     HEL1     0.150000       1.00800           0
      2920 MEMB     27       SAPE     C216     CTL2    -0.180000       12.0110           0
      2921 MEMB     27       SAPE     H16R     HAL2     0.900000E-01   1.00800           0
      2922 MEMB     27       SAPE     H16S     HAL2     0.900000E-01   1.00800           0
      2923 MEMB     27       SAPE     C217     CTL2    -0.180000       12.0110           0
      2924 MEMB     27       SAPE     H17R     HAL2     0.900000E-01   1.00800           0
      2925 MEMB     27       SAPE     H17S     HAL2     0.900000E-01   1.00800           0
      2926 MEMB     27       SAPE     C218     CTL2    -0.180000       12.0110           0
      2927 MEMB     27       SAPE     H18R     HAL2     0.900000E-01   1.00800           0
      2928 MEMB     27       SAPE     H18S     HAL2     0.900000E-01   1.00800           0
      2929 MEMB     27       SAPE     C219     CTL2    -0.180000       12.0110           0
      2930 MEMB     27       SAPE     H19R     HAL2     0.900000E-01   1.00800           0
      2931 MEMB     27       SAPE     H19S     HAL2     0.900000E-01   1.00800           0
      2932 MEMB     27       SAPE     C220     CTL3    -0.270000       12.0110           0
      2933 MEMB     27       SAPE     H20R     HAL3     0.900000E-01   1.00800           0
      2934 MEMB     27       SAPE     H20S     HAL3     0.900000E-01   1.00800           0
      2935 MEMB     27       SAPE     H20T     HAL3     0.900000E-01   1.00800           0
      2936 MEMB     27       SAPE     C33      CTL2    -0.180000       12.0110           0
      2937 MEMB     27       SAPE     H3X      HAL2     0.900000E-01   1.00800           0
      2938 MEMB     27       SAPE     H3Y      HAL2     0.900000E-01   1.00800           0
      2939 MEMB     27       SAPE     C34      CTL2    -0.180000       12.0110           0
      2940 MEMB     27       SAPE     H4X      HAL2     0.900000E-01   1.00800           0
      2941 MEMB     27       SAPE     H4Y      HAL2     0.900000E-01   1.00800           0
      2942 MEMB     27       SAPE     C35      CTL2    -0.180000       12.0110           0
      2943 MEMB     27       SAPE     H5X      HAL2     0.900000E-01   1.00800           0
      2944 MEMB     27       SAPE     H5Y      HAL2     0.900000E-01   1.00800           0
      2945 MEMB     27       SAPE     C36      CTL2    -0.180000       12.0110           0
      2946 MEMB     27       SAPE     H6X      HAL2     0.900000E-01   1.00800           0
      2947 MEMB     27       SAPE     H6Y      HAL2     0.900000E-01   1.00800           0
      2948 MEMB     27       SAPE     C37      CTL2    -0.180000       12.0110           0
      2949 MEMB     27       SAPE     H7X      HAL2     0.900000E-01   1.00800           0
      2950 MEMB     27       SAPE     H7Y      HAL2     0.900000E-01   1.00800           0
      2951 MEMB     27       SAPE     C38      CTL2    -0.180000       12.0110           0
      2952 MEMB     27       SAPE     H8X      HAL2     0.900000E-01   1.00800           0
      2953 MEMB     27       SAPE     H8Y      HAL2     0.900000E-01   1.00800           0
      2954 MEMB     27       SAPE     C39      CTL2    -0.180000       12.0110           0
      2955 MEMB     27       SAPE     H9X      HAL2     0.900000E-01   1.00800           0
      2956 MEMB     27       SAPE     H9Y      HAL2     0.900000E-01   1.00800           0
      2957 MEMB     27       SAPE     C310     CTL2    -0.180000       12.0110           0
      2958 MEMB     27       SAPE     H10X     HAL2     0.900000E-01   1.00800           0
      2959 MEMB     27       SAPE     H10Y     HAL2     0.900000E-01   1.00800           0
      2960 MEMB     27       SAPE     C311     CTL2    -0.180000       12.0110           0
      2961 MEMB     27       SAPE     H11X     HAL2     0.900000E-01   1.00800           0
      2962 MEMB     27       SAPE     H11Y     HAL2     0.900000E-01   1.00800           0
      2963 MEMB     27       SAPE     C312     CTL2    -0.180000       12.0110           0
      2964 MEMB     27       SAPE     H12X     HAL2     0.900000E-01   1.00800           0
      2965 MEMB     27       SAPE     H12Y     HAL2     0.900000E-01   1.00800           0
      2966 MEMB     27       SAPE     C313     CTL2    -0.180000       12.0110           0
      2967 MEMB     27       SAPE     H13X     HAL2     0.900000E-01   1.00800           0
      2968 MEMB     27       SAPE     H13Y     HAL2     0.900000E-01   1.00800           0
      2969 MEMB     27       SAPE     C314     CTL2    -0.180000       12.0110           0
      2970 MEMB     27       SAPE     H14X     HAL2     0.900000E-01   1.00800           0
      2971 MEMB     27       SAPE     H14Y     HAL2     0.900000E-01   1.00800           0
      2972 MEMB     27       SAPE     C315     CTL2    -0.180000       12.0110           0
      2973 MEMB     27       SAPE     H15X     HAL2     0.900000E-01   1.00800           0
      2974 MEMB     27       SAPE     H15Y     HAL2     0.900000E-01   1.00800           0
      2975 MEMB     27       SAPE     C316     CTL2    -0.180000       12.0110           0
      2976 MEMB     27       SAPE     H16X     HAL2     0.900000E-01   1.00800           0
      2977 MEMB     27       SAPE     H16Y     HAL2     0.900000E-01   1.00800           0
      2978 MEMB     27       SAPE     C317     CTL2    -0.180000       12.0110           0
      2979 MEMB     27       SAPE     H17X     HAL2     0.900000E-01   1.00800           0
      2980 MEMB     27       SAPE     H17Y     HAL2     0.900000E-01   1.00800           0
      2981 MEMB     27       SAPE     C318     CTL3    -0.270000       12.0110           0
      2982 MEMB     27       SAPE     H18X     HAL3     0.900000E-01   1.00800           0
      2983 MEMB     27       SAPE     H18Y     HAL3     0.900000E-01   1.00800           0
      2984 MEMB     27       SAPE     H18Z     HAL3     0.900000E-01   1.00800           0
      2985 MEMB     28       SAPE     N        NH3L    -0.300000       14.0070           0
      2986 MEMB     28       SAPE     HN1      HCL      0.330000       1.00800           0
      2987 MEMB     28       SAPE     HN2      HCL      0.330000       1.00800           0
      2988 MEMB     28       SAPE     HN3      HCL      0.330000       1.00800           0
      2989 MEMB     28       SAPE     C12      CTL2     0.130000       12.0110           0
      2990 MEMB     28       SAPE     H12A     HAL2     0.900000E-01   1.00800           0
      2991 MEMB     28       SAPE     H12B     HAL2     0.900000E-01   1.00800           0
      2992 MEMB     28       SAPE     C11      CTL2    -0.800000E-01   12.0110           0
      2993 MEMB     28       SAPE     H11A     HAL2     0.900000E-01   1.00800           0
      2994 MEMB     28       SAPE     H11B     HAL2     0.900000E-01   1.00800           0
      2995 MEMB     28       SAPE     P        PL        1.50000       30.9740           0
      2996 MEMB     28       SAPE     O13      O2L     -0.780000       15.9994           0
      2997 MEMB     28       SAPE     O14      O2L     -0.780000       15.9994           0
      2998 MEMB     28       SAPE     O12      OSLP    -0.570000       15.9994           0
      2999 MEMB     28       SAPE     O11      OSLP    -0.570000       15.9994           0
      3000 MEMB     28       SAPE     C1       CTL2    -0.800000E-01   12.0110           0
      3001 MEMB     28       SAPE     HA       HAL2     0.900000E-01   1.00800           0
      3002 MEMB     28       SAPE     HB       HAL2     0.900000E-01   1.00800           0
      3003 MEMB     28       SAPE     C2       CTL1     0.170000       12.0110           0
      3004 MEMB     28       SAPE     HS       HAL1     0.900000E-01   1.00800           0
      3005 MEMB     28       SAPE     O21      OSL     -0.490000       15.9994           0
      3006 MEMB     28       SAPE     C21      CL       0.900000       12.0110           0
      3007 MEMB     28       SAPE     O22      OBL     -0.630000       15.9994           0
      3008 MEMB     28       SAPE     C22      CTL2    -0.220000       12.0110           0
      3009 MEMB     28       SAPE     H2R      HAL2     0.900000E-01   1.00800           0
      3010 MEMB     28       SAPE     H2S      HAL2     0.900000E-01   1.00800           0
      3011 MEMB     28       SAPE     C3       CTL2     0.800000E-01   12.0110           0
      3012 MEMB     28       SAPE     HX       HAL2     0.900000E-01   1.00800           0
      3013 MEMB     28       SAPE     HY       HAL2     0.900000E-01   1.00800           0
      3014 MEMB     28       SAPE     O31      OSL     -0.490000       15.9994           0
      3015 MEMB     28       SAPE     C31      CL       0.900000       12.0110           0
      3016 MEMB     28       SAPE     O32      OBL     -0.630000       15.9994           0
      3017 MEMB     28       SAPE     C32      CTL2    -0.220000       12.0110           0
      3018 MEMB     28       SAPE     H2X      HAL2     0.900000E-01   1.00800           0
      3019 MEMB     28       SAPE     H2Y      HAL2     0.900000E-01   1.00800           0
      3020 MEMB     28       SAPE     C23      CTL2    -0.180000       12.0110           0
      3021 MEMB     28       SAPE     H3R      HAL2     0.900000E-01   1.00800           0
      3022 MEMB     28       SAPE     H3S      HAL2     0.900000E-01   1.00800           0
      3023 MEMB     28       SAPE     C24      CTL2    -0.180000       12.0110           0
      3024 MEMB     28       SAPE     H4R      HAL2     0.900000E-01   1.00800           0
      3025 MEMB     28       SAPE     H4S      HAL2     0.900000E-01   1.00800           0
      3026 MEMB     28       SAPE     C25      CEL1    -0.150000       12.0110           0
      3027 MEMB     28       SAPE     H5R      HEL1     0.150000       1.00800           0
      3028 MEMB     28       SAPE     C26      CEL1    -0.150000       12.0110           0
      3029 MEMB     28       SAPE     H6R      HEL1     0.150000       1.00800           0
      3030 MEMB     28       SAPE     C27      CTL2    -0.180000       12.0110           0
      3031 MEMB     28       SAPE     H7R      HAL2     0.900000E-01   1.00800           0
      3032 MEMB     28       SAPE     H7S      HAL2     0.900000E-01   1.00800           0
      3033 MEMB     28       SAPE     C28      CEL1    -0.150000       12.0110           0
      3034 MEMB     28       SAPE     H8R      HEL1     0.150000       1.00800           0
      3035 MEMB     28       SAPE     C29      CEL1    -0.150000       12.0110           0
      3036 MEMB     28       SAPE     H9R      HEL1     0.150000       1.00800           0
      3037 MEMB     28       SAPE     C210     CTL2    -0.180000       12.0110           0
      3038 MEMB     28       SAPE     H10R     HAL2     0.900000E-01   1.00800           0
      3039 MEMB     28       SAPE     H10S     HAL2     0.900000E-01   1.00800           0
      3040 MEMB     28       SAPE     C211     CEL1    -0.150000       12.0110           0
      3041 MEMB     28       SAPE     H11R     HEL1     0.150000       1.00800           0
      3042 MEMB     28       SAPE     C212     CEL1    -0.150000       12.0110           0
      3043 MEMB     28       SAPE     H12R     HEL1     0.150000       1.00800           0
      3044 MEMB     28       SAPE     C213     CTL2    -0.180000       12.0110           0
      3045 MEMB     28       SAPE     H13R     HAL2     0.900000E-01   1.00800           0
      3046 MEMB     28       SAPE     H13S     HAL2     0.900000E-01   1.00800           0
      3047 MEMB     28       SAPE     C214     CEL1    -0.150000       12.0110           0
      3048 MEMB     28       SAPE     H14R     HEL1     0.150000       1.00800           0
      3049 MEMB     28       SAPE     C215     CEL1    -0.150000       12.0110           0
      3050 MEMB     28       SAPE     H15R     HEL1     0.150000       1.00800           0
      3051 MEMB     28       SAPE     C216     CTL2    -0.180000       12.0110           0
      3052 MEMB     28       SAPE     H16R     HAL2     0.900000E-01   1.00800           0
      3053 MEMB     28       SAPE     H16S     HAL2     0.900000E-01   1.00800           0
      3054 MEMB     28       SAPE     C217     CTL2    -0.180000       12.0110           0
      3055 MEMB     28       SAPE     H17R     HAL2     0.900000E-01   1.00800           0
      3056 MEMB     28       SAPE     H17S     HAL2     0.900000E-01   1.00800           0
      3057 MEMB     28       SAPE     C218     CTL2    -0.180000       12.0110           0
      3058 MEMB     28       SAPE     H18R     HAL2     0.900000E-01   1.00800           0
      3059 MEMB     28       SAPE     H18S     HAL2     0.900000E-01   1.00800           0
      3060 MEMB     28       SAPE     C219     CTL2    -0.180000       12.0110           0
      3061 MEMB     28       SAPE     H19R     HAL2     0.900000E-01   1.00800           0
      3062 MEMB     28       SAPE     H19S     HAL2     0.900000E-01   1.00800           0
      3063 MEMB     28       SAPE     C220     CTL3    -0.270000       12.0110           0
      3064 MEMB     28       SAPE     H20R     HAL3     0.900000E-01   1.00800           0
      3065 MEMB     28       SAPE     H20S     HAL3     0.900000E-01   1.00800           0
      3066 MEMB     28       SAPE     H20T     HAL3     0.900000E-01   1.00800           0
      3067 MEMB     28       SAPE     C33      CTL2    -0.180000       12.0110           0
      3068 MEMB     28       SAPE     H3X      HAL2     0.900000E-01   1.00800           0
      3069 MEMB     28       SAPE     H3Y      HAL2     0.900000E-01   1.00800           0
      3070 MEMB     28       SAPE     C34      CTL2    -0.180000       12.0110           0
      3071 MEMB     28       SAPE     H4X      HAL2     0.900000E-01   1.00800           0
      3072 MEMB     28       SAPE     H4Y      HAL2     0.900000E-01   1.00800           0
      3073 MEMB     28       SAPE     C35      CTL2    -0.180000       12.0110           0
      3074 MEMB     28       SAPE     H5X      HAL2     0.900000E-01   1.00800           0
      3075 MEMB     28       SAPE     H5Y      HAL2     0.900000E-01   1.00800           0
      3076 MEMB     28       SAPE     C36      CTL2    -0.180000       12.0110           0
      3077 MEMB     28       SAPE     H6X      HAL2     0.900000E-01   1.00800           0
      3078 MEMB     28       SAPE     H6Y      HAL2     0.900000E-01   1.00800           0
      3079 MEMB     28       SAPE     C37      CTL2    -0.180000       12.0110           0
      3080 MEMB     28       SAPE     H7X      HAL2     0.900000E-01   1.00800           0
      3081 MEMB     28       SAPE     H7Y      HAL2     0.900000E-01   1.00800           0
      3082 MEMB     28       SAPE     C38      CTL2    -0.180000       12.0110           0
      3083 MEMB     28       SAPE     H8X      HAL2     0.900000E-01   1.00800           0
      3084 MEMB     28       SAPE     H8Y      HAL2     0.900000E-01   1.00800           0
      3085 MEMB     28       SAPE     C39      CTL2    -0.180000       12.0110           0
      3086 MEMB     28       SAPE     H9X      HAL2     0.900000E-01   1.00800           0
      3087 MEMB     28       SAPE     H9Y      HAL2     0.900000E-01   1.00800           0
      3088 MEMB     28       SAPE     C310     CTL2    -0.180000       12.0110           0
      3089 MEMB     28       SAPE     H10X     HAL2     0.900000E-01   1.00800           0
      3090 MEMB     28       SAPE     H10Y     HAL2     0.900000E-01   1.00800           0
      3091 MEMB     28       SAPE     C311     CTL2    -0.180000       12.0110           0
      3092 MEMB     28       SAPE     H11X     HAL2     0.900000E-01   1.00800           0
      3093 MEMB     28       SAPE     H11Y     HAL2     0.900000E-01   1.00800           0
      3094 MEMB     28       SAPE     C312     CTL2    -0.180000       12.0110           0
      3095 MEMB     28       SAPE     H12X     HAL2     0.900000E-01   1.00800           0
      3096 MEMB     28       SAPE     H12Y     HAL2     0.900000E-01   1.00800           0
      3097 MEMB     28       SAPE     C313     CTL2    -0.180000       12.0110           0
      3098 MEMB     28       SAPE     H13X     HAL2     0.900000E-01   1.00800           0
      3099 MEMB     28       SAPE     H13Y     HAL2     0.900000E-01   1.00800           0
      3100 MEMB     28       SAPE     C314     CTL2    -0.180000       12.0110           0
      3101 MEMB     28       SAPE     H14X     HAL2     0.900000E-01   1.00800           0
      3102 MEMB     28       SAPE     H14Y     HAL2     0.900000E-01   1.00800           0
      3103 MEMB     28       SAPE     C315     CTL2    -0.180000       12.0110           0
      3104 MEMB     28       SAPE     H15X     HAL2     0.900000E-01   1.00800           0
      3105 MEMB     28       SAPE     H15Y     HAL2     0.900000E-01   1.00800           0
      3106 MEMB     28       SAPE     C316     CTL2    -0.180000       12.0110           0
      3107 MEMB     28       SAPE     H16X     HAL2     0.900000E-01   1.00800           0
      3108 MEMB     28       SAPE     H16Y     HAL2     0.900000E-01   1.00800           0
      3109 MEMB     28       SAPE     C317     CTL2    -0.180000       12.0110           0
      3110 MEMB     28       SAPE     H17X     HAL2     0.900000E-01   1.00800           0
      3111 MEMB     28       SAPE     H17Y     HAL2     0.900000E-01   1.00800           0
      3112 MEMB     28       SAPE     C318     CTL3    -0.270000       12.0110           0
      3113 MEMB     28       SAPE     H18X     HAL3     0.900000E-01   1.00800           0
      3114 MEMB     28       SAPE     H18Y     HAL3     0.900000E-01   1.00800           0
      3115 MEMB     28       SAPE     H18Z     HAL3     0.900000E-01   1.00800           0
      3116 MEMB     29       SAPE     N        NH3L    -0.300000       14.0070           0
      3117 MEMB     29       SAPE     HN1      HCL      0.330000       1.00800           0
      3118 MEMB     29       SAPE     HN2      HCL      0.330000       1.00800           0
      3119 MEMB     29       SAPE     HN3      HCL      0.330000       1.00800           0
      3120 MEMB     29       SAPE     C12      CTL2     0.130000       12.0110           0
      3121 MEMB     29       SAPE     H12A     HAL2     0.900000E-01   1.00800           0
      3122 MEMB     29       SAPE     H12B     HAL2     0.900000E-01   1.00800           0
      3123 MEMB     29       SAPE     C11      CTL2    -0.800000E-01   12.0110           0
      3124 MEMB     29       SAPE     H11A     HAL2     0.900000E-01   1.00800           0
      3125 MEMB     29       SAPE     H11B     HAL2     0.900000E-01   1.00800           0
      3126 MEMB     29       SAPE     P        PL        1.50000       30.9740           0
      3127 MEMB     29       SAPE     O13      O2L     -0.780000       15.9994           0
      3128 MEMB     29       SAPE     O14      O2L     -0.780000       15.9994           0
      3129 MEMB     29       SAPE     O12      OSLP    -0.570000       15.9994           0
      3130 MEMB     29       SAPE     O11      OSLP    -0.570000       15.9994           0
      3131 MEMB     29       SAPE     C1       CTL2    -0.800000E-01   12.0110           0
      3132 MEMB     29       SAPE     HA       HAL2     0.900000E-01   1.00800           0
      3133 MEMB     29       SAPE     HB       HAL2     0.900000E-01   1.00800           0
      3134 MEMB     29       SAPE     C2       CTL1     0.170000       12.0110           0
      3135 MEMB     29       SAPE     HS       HAL1     0.900000E-01   1.00800           0
      3136 MEMB     29       SAPE     O21      OSL     -0.490000       15.9994           0
      3137 MEMB     29       SAPE     C21      CL       0.900000       12.0110           0
      3138 MEMB     29       SAPE     O22      OBL     -0.630000       15.9994           0
      3139 MEMB     29       SAPE     C22      CTL2    -0.220000       12.0110           0
      3140 MEMB     29       SAPE     H2R      HAL2     0.900000E-01   1.00800           0
      3141 MEMB     29       SAPE     H2S      HAL2     0.900000E-01   1.00800           0
      3142 MEMB     29       SAPE     C3       CTL2     0.800000E-01   12.0110           0
      3143 MEMB     29       SAPE     HX       HAL2     0.900000E-01   1.00800           0
      3144 MEMB     29       SAPE     HY       HAL2     0.900000E-01   1.00800           0
      3145 MEMB     29       SAPE     O31      OSL     -0.490000       15.9994           0
      3146 MEMB     29       SAPE     C31      CL       0.900000       12.0110           0
      3147 MEMB     29       SAPE     O32      OBL     -0.630000       15.9994           0
      3148 MEMB     29       SAPE     C32      CTL2    -0.220000       12.0110           0
      3149 MEMB     29       SAPE     H2X      HAL2     0.900000E-01   1.00800           0
      3150 MEMB     29       SAPE     H2Y      HAL2     0.900000E-01   1.00800           0
      3151 MEMB     29       SAPE     C23      CTL2    -0.180000       12.0110           0
      3152 MEMB     29       SAPE     H3R      HAL2     0.900000E-01   1.00800           0
      3153 MEMB     29       SAPE     H3S      HAL2     0.900000E-01   1.00800           0
      3154 MEMB     29       SAPE     C24      CTL2    -0.180000       12.0110           0
      3155 MEMB     29       SAPE     H4R      HAL2     0.900000E-01   1.00800           0
      3156 MEMB     29       SAPE     H4S      HAL2     0.900000E-01   1.00800           0
      3157 MEMB     29       SAPE     C25      CEL1    -0.150000       12.0110           0
      3158 MEMB     29       SAPE     H5R      HEL1     0.150000       1.00800           0
      3159 MEMB     29       SAPE     C26      CEL1    -0.150000       12.0110           0
      3160 MEMB     29       SAPE     H6R      HEL1     0.150000       1.00800           0
      3161 MEMB     29       SAPE     C27      CTL2    -0.180000       12.0110           0
      3162 MEMB     29       SAPE     H7R      HAL2     0.900000E-01   1.00800           0
      3163 MEMB     29       SAPE     H7S      HAL2     0.900000E-01   1.00800           0
      3164 MEMB     29       SAPE     C28      CEL1    -0.150000       12.0110           0
      3165 MEMB     29       SAPE     H8R      HEL1     0.150000       1.00800           0
      3166 MEMB     29       SAPE     C29      CEL1    -0.150000       12.0110           0
      3167 MEMB     29       SAPE     H9R      HEL1     0.150000       1.00800           0
      3168 MEMB     29       SAPE     C210     CTL2    -0.180000       12.0110           0
      3169 MEMB     29       SAPE     H10R     HAL2     0.900000E-01   1.00800           0
      3170 MEMB     29       SAPE     H10S     HAL2     0.900000E-01   1.00800           0
      3171 MEMB     29       SAPE     C211     CEL1    -0.150000       12.0110           0
      3172 MEMB     29       SAPE     H11R     HEL1     0.150000       1.00800           0
      3173 MEMB     29       SAPE     C212     CEL1    -0.150000       12.0110           0
      3174 MEMB     29       SAPE     H12R     HEL1     0.150000       1.00800           0
      3175 MEMB     29       SAPE     C213     CTL2    -0.180000       12.0110           0
      3176 MEMB     29       SAPE     H13R     HAL2     0.900000E-01   1.00800           0
      3177 MEMB     29       SAPE     H13S     HAL2     0.900000E-01   1.00800           0
      3178 MEMB     29       SAPE     C214     CEL1    -0.150000       12.0110           0
      3179 MEMB     29       SAPE     H14R     HEL1     0.150000       1.00800           0
      3180 MEMB     29       SAPE     C215     CEL1    -0.150000       12.0110           0
      3181 MEMB     29       SAPE     H15R     HEL1     0.150000       1.00800           0
      3182 MEMB     29       SAPE     C216     CTL2    -0.180000       12.0110           0
      3183 MEMB     29       SAPE     H16R     HAL2     0.900000E-01   1.00800           0
      3184 MEMB     29       SAPE     H16S     HAL2     0.900000E-01   1.00800           0
      3185 MEMB     29       SAPE     C217     CTL2    -0.180000       12.0110           0
      3186 MEMB     29       SAPE     H17R     HAL2     0.900000E-01   1.00800           0
      3187 MEMB     29       SAPE     H17S     HAL2     0.900000E-01   1.00800           0
      3188 MEMB     29       SAPE     C218     CTL2    -0.180000       12.0110           0
      3189 MEMB     29       SAPE     H18R     HAL2     0.900000E-01   1.00800           0
      3190 MEMB     29       SAPE     H18S     HAL2     0.900000E-01   1.00800           0
      3191 MEMB     29       SAPE     C219     CTL2    -0.180000       12.0110           0
      3192 MEMB     29       SAPE     H19R     HAL2     0.900000E-01   1.00800           0
      3193 MEMB     29       SAPE     H19S     HAL2     0.900000E-01   1.00800           0
      3194 MEMB     29       SAPE     C220     CTL3    -0.270000       12.0110           0
      3195 MEMB     29       SAPE     H20R     HAL3     0.900000E-01   1.00800           0
      3196 MEMB     29       SAPE     H20S     HAL3     0.900000E-01   1.00800           0
      3197 MEMB     29       SAPE     H20T     HAL3     0.900000E-01   1.00800           0
      3198 MEMB     29       SAPE     C33      CTL2    -0.180000       12.0110           0
      3199 MEMB     29       SAPE     H3X      HAL2     0.900000E-01   1.00800           0
      3200 MEMB     29       SAPE     H3Y      HAL2     0.900000E-01   1.00800           0
      3201 MEMB     29       SAPE     C34      CTL2    -0.180000       12.0110           0
      3202 MEMB     29       SAPE     H4X      HAL2     0.900000E-01   1.00800           0
      3203 MEMB     29       SAPE     H4Y      HAL2     0.900000E-01   1.00800           0
      3204 MEMB     29       SAPE     C35      CTL2    -0.180000       12.0110           0
      3205 MEMB     29       SAPE     H5X      HAL2     0.900000E-01   1.00800           0
      3206 MEMB     29       SAPE     H5Y      HAL2     0.900000E-01   1.00800           0
      3207 MEMB     29       SAPE     C36      CTL2    -0.180000       12.0110           0
      3208 MEMB     29       SAPE     H6X      HAL2     0.900000E-01   1.00800           0
      3209 MEMB     29       SAPE     H6Y      HAL2     0.900000E-01   1.00800           0
      3210 MEMB     29       SAPE     C37      CTL2    -0.180000       12.0110           0
      3211 MEMB     29       SAPE     H7X      HAL2     0.900000E-01   1.00800           0
      3212 MEMB     29       SAPE     H7Y      HAL2     0.900000E-01   1.00800           0
      3213 MEMB     29       SAPE     C38      CTL2    -0.180000       12.0110           0
      3214 MEMB     29       SAPE     H8X      HAL2     0.900000E-01   1.00800           0
      3215 MEMB     29       SAPE     H8Y      HAL2     0.900000E-01   1.00800           0
      3216 MEMB     29       SAPE     C39      CTL2    -0.180000       12.0110           0
      3217 MEMB     29       SAPE     H9X      HAL2     0.900000E-01   1.00800           0
      3218 MEMB     29       SAPE     H9Y      HAL2     0.900000E-01   1.00800           0
      3219 MEMB     29       SAPE     C310     CTL2    -0.180000       12.0110           0
      3220 MEMB     29       SAPE     H10X     HAL2     0.900000E-01   1.00800           0
      3221 MEMB     29       SAPE     H10Y     HAL2     0.900000E-01   1.00800           0
      3222 MEMB     29       SAPE     C311     CTL2    -0.180000       12.0110           0
      3223 MEMB     29       SAPE     H11X     HAL2     0.900000E-01   1.00800           0
      3224 MEMB     29       SAPE     H11Y     HAL2     0.900000E-01   1.00800           0
      3225 MEMB     29       SAPE     C312     CTL2    -0.180000       12.0110           0
      3226 MEMB     29       SAPE     H12X     HAL2     0.900000E-01   1.00800           0
      3227 MEMB     29       SAPE     H12Y     HAL2     0.900000E-01   1.00800           0
      3228 MEMB     29       SAPE     C313     CTL2    -0.180000       12.0110           0
      3229 MEMB     29       SAPE     H13X     HAL2     0.900000E-01   1.00800           0
      3230 MEMB     29       SAPE     H13Y     HAL2     0.900000E-01   1.00800           0
      3231 MEMB     29       SAPE     C314     CTL2    -0.180000       12.0110           0
      3232 MEMB     29       SAPE     H14X     HAL2     0.900000E-01   1.00800           0
      3233 MEMB     29       SAPE     H14Y     HAL2     0.900000E-01   1.00800           0
      3234 MEMB     29       SAPE     C315     CTL2    -0.180000       12.0110           0
      3235 MEMB     29       SAPE     H15X     HAL2     0.900000E-01   1.00800           0
      3236 MEMB     29       SAPE     H15Y     HAL2     0.900000E-01   1.00800           0
      3237 MEMB     29       SAPE     C316     CTL2    -0.180000       12.0110           0
      3238 MEMB     29       SAPE     H16X     HAL2     0.900000E-01   1.00800           0
      3239 MEMB     29       SAPE     H16Y     HAL2     0.900000E-01   1.00800           0
      3240 MEMB     29       SAPE     C317     CTL2    -0.180000       12.0110           0
      3241 MEMB     29       SAPE     H17X     HAL2     0.900000E-01   1.00800           0
      3242 MEMB     29       SAPE     H17Y     HAL2     0.900000E-01   1.00800           0
      3243 MEMB     29       SAPE     C318     CTL3    -0.270000       12.0110           0
      3244 MEMB     29       SAPE     H18X     HAL3     0.900000E-01   1.00800           0
      3245 MEMB     29       SAPE     H18Y     HAL3     0.900000E-01   1.00800           0
      3246 MEMB     29       SAPE     H18Z     HAL3     0.900000E-01   1.00800           0
      3247 MEMB     30       CHL1     C3       CRL1     0.140000       12.0110           0
      3248 MEMB     30       CHL1     H3       HGA1     0.900000E-01   1.00800           0
      3249 MEMB     30       CHL1     O3       OHL     -0.660000       15.9994           0
      3250 MEMB     30       CHL1     H3'      HOL      0.430000       1.00800           0
      3251 MEMB     30       CHL1     C4       CRL2    -0.180000       12.0110           0
      3252 MEMB     30       CHL1     H4A      HGA2     0.900000E-01   1.00800           0
      3253 MEMB     30       CHL1     H4B      HGA2     0.900000E-01   1.00800           0
      3254 MEMB     30       CHL1     C5       CEL1      0.00000       12.0110           0
      3255 MEMB     30       CHL1     C6       CEL1    -0.150000       12.0110           0
      3256 MEMB     30       CHL1     H6       HEL1     0.150000       1.00800           0
      3257 MEMB     30       CHL1     C7       CRL2    -0.180000       12.0110           0
      3258 MEMB     30       CHL1     H7A      HGA2     0.900000E-01   1.00800           0
      3259 MEMB     30       CHL1     H7B      HGA2     0.900000E-01   1.00800           0
      3260 MEMB     30       CHL1     C8       CRL1    -0.900000E-01   12.0110           0
      3261 MEMB     30       CHL1     H8       HGA1     0.900000E-01   1.00800           0
      3262 MEMB     30       CHL1     C14      CRL1    -0.900000E-01   12.0110           0
      3263 MEMB     30       CHL1     H14      HGA1     0.900000E-01   1.00800           0
      3264 MEMB     30       CHL1     C15      CRL2    -0.180000       12.0110           0
      3265 MEMB     30       CHL1     H15A     HGA2     0.900000E-01   1.00800           0
      3266 MEMB     30       CHL1     H15B     HGA2     0.900000E-01   1.00800           0
      3267 MEMB     30       CHL1     C16      CRL2    -0.180000       12.0110           0
      3268 MEMB     30       CHL1     H16A     HGA2     0.900000E-01   1.00800           0
      3269 MEMB     30       CHL1     H16B     HGA2     0.900000E-01   1.00800           0
      3270 MEMB     30       CHL1     C17      CRL1    -0.900000E-01   12.0110           0
      3271 MEMB     30       CHL1     H17      HGA1     0.900000E-01   1.00800           0
      3272 MEMB     30       CHL1     C13      CRL1      0.00000       12.0110           0
      3273 MEMB     30       CHL1     C18      CTL3    -0.270000       12.0110           0
      3274 MEMB     30       CHL1     H18A     HAL3     0.900000E-01   1.00800           0
      3275 MEMB     30       CHL1     H18B     HAL3     0.900000E-01   1.00800           0
      3276 MEMB     30       CHL1     H18C     HAL3     0.900000E-01   1.00800           0
      3277 MEMB     30       CHL1     C12      CRL2    -0.180000       12.0110           0
      3278 MEMB     30       CHL1     H12A     HGA2     0.900000E-01   1.00800           0
      3279 MEMB     30       CHL1     H12B     HGA2     0.900000E-01   1.00800           0
      3280 MEMB     30       CHL1     C11      CRL2    -0.180000       12.0110           0
      3281 MEMB     30       CHL1     H11A     HGA2     0.900000E-01   1.00800           0
      3282 MEMB     30       CHL1     H11B     HGA2     0.900000E-01   1.00800           0
      3283 MEMB     30       CHL1     C9       CRL1    -0.900000E-01   12.0110           0
      3284 MEMB     30       CHL1     H9       HGA1     0.900000E-01   1.00800           0
      3285 MEMB     30       CHL1     C10      CRL1      0.00000       12.0110           0
      3286 MEMB     30       CHL1     C19      CTL3    -0.270000       12.0110           0
      3287 MEMB     30       CHL1     H19A     HAL3     0.900000E-01   1.00800           0
      3288 MEMB     30       CHL1     H19B     HAL3     0.900000E-01   1.00800           0
      3289 MEMB     30       CHL1     H19C     HAL3     0.900000E-01   1.00800           0
      3290 MEMB     30       CHL1     C1       CRL2    -0.180000       12.0110           0
      3291 MEMB     30       CHL1     H1A      HGA2     0.900000E-01   1.00800           0
      3292 MEMB     30       CHL1     H1B      HGA2     0.900000E-01   1.00800           0
      3293 MEMB     30       CHL1     C2       CRL2    -0.180000       12.0110           0
      3294 MEMB     30       CHL1     H2A      HGA2     0.900000E-01   1.00800           0
      3295 MEMB     30       CHL1     H2B      HGA2     0.900000E-01   1.00800           0
      3296 MEMB     30       CHL1     C20      CTL1    -0.900000E-01   12.0110           0
      3297 MEMB     30       CHL1     H20      HAL1     0.900000E-01   1.00800           0
      3298 MEMB     30       CHL1     C21      CTL3    -0.270000       12.0110           0
      3299 MEMB     30       CHL1     H21A     HAL3     0.900000E-01   1.00800           0
      3300 MEMB     30       CHL1     H21B     HAL3     0.900000E-01   1.00800           0
      3301 MEMB     30       CHL1     H21C     HAL3     0.900000E-01   1.00800           0
      3302 MEMB     30       CHL1     C22      CTL2    -0.180000       12.0110           0
      3303 MEMB     30       CHL1     H22A     HAL2     0.900000E-01   1.00800           0
      3304 MEMB     30       CHL1     H22B     HAL2     0.900000E-01   1.00800           0
      3305 MEMB     30       CHL1     C23      CTL2    -0.180000       12.0110           0
      3306 MEMB     30       CHL1     H23A     HAL2     0.900000E-01   1.00800           0
      3307 MEMB     30       CHL1     H23B     HAL2     0.900000E-01   1.00800           0
      3308 MEMB     30       CHL1     C24      CTL2    -0.180000       12.0110           0
      3309 MEMB     30       CHL1     H24A     HAL2     0.900000E-01   1.00800           0
      3310 MEMB     30       CHL1     H24B     HAL2     0.900000E-01   1.00800           0
      3311 MEMB     30       CHL1     C25      CTL1    -0.900000E-01   12.0110           0
      3312 MEMB     30       CHL1     H25      HAL1     0.900000E-01   1.00800           0
      3313 MEMB     30       CHL1     C26      CTL3    -0.270000       12.0110           0
      3314 MEMB     30       CHL1     H26A     HAL3     0.900000E-01   1.00800           0
      3315 MEMB     30       CHL1     H26B     HAL3     0.900000E-01   1.00800           0
      3316 MEMB     30       CHL1     H26C     HAL3     0.900000E-01   1.00800           0
      3317 MEMB     30       CHL1     C27      CTL3    -0.270000       12.0110           0
      3318 MEMB     30       CHL1     H27A     HAL3     0.900000E-01   1.00800           0
      3319 MEMB     30       CHL1     H27B     HAL3     0.900000E-01   1.00800           0
      3320 MEMB     30       CHL1     H27C     HAL3     0.900000E-01   1.00800           0
      3321 MEMB     31       SAPE     N        NH3L    -0.300000       14.0070           0
      3322 MEMB     31       SAPE     HN1      HCL      0.330000       1.00800           0
      3323 MEMB     31       SAPE     HN2      HCL      0.330000       1.00800           0
      3324 MEMB     31       SAPE     HN3      HCL      0.330000       1.00800           0
      3325 MEMB     31       SAPE     C12      CTL2     0.130000       12.0110           0
      3326 MEMB     31       SAPE     H12A     HAL2     0.900000E-01   1.00800           0
      3327 MEMB     31       SAPE     H12B     HAL2     0.900000E-01   1.00800           0
      3328 MEMB     31       SAPE     C11      CTL2    -0.800000E-01   12.0110           0
      3329 MEMB     31       SAPE     H11A     HAL2     0.900000E-01   1.00800           0
      3330 MEMB     31       SAPE     H11B     HAL2     0.900000E-01   1.00800           0
      3331 MEMB     31       SAPE     P        PL        1.50000       30.9740           0
      3332 MEMB     31       SAPE     O13      O2L     -0.780000       15.9994           0
      3333 MEMB     31       SAPE     O14      O2L     -0.780000       15.9994           0
      3334 MEMB     31       SAPE     O12      OSLP    -0.570000       15.9994           0
      3335 MEMB     31       SAPE     O11      OSLP    -0.570000       15.9994           0
      3336 MEMB     31       SAPE     C1       CTL2    -0.800000E-01   12.0110           0
      3337 MEMB     31       SAPE     HA       HAL2     0.900000E-01   1.00800           0
      3338 MEMB     31       SAPE     HB       HAL2     0.900000E-01   1.00800           0
      3339 MEMB     31       SAPE     C2       CTL1     0.170000       12.0110           0
      3340 MEMB     31       SAPE     HS       HAL1     0.900000E-01   1.00800           0
      3341 MEMB     31       SAPE     O21      OSL     -0.490000       15.9994           0
      3342 MEMB     31       SAPE     C21      CL       0.900000       12.0110           0
      3343 MEMB     31       SAPE     O22      OBL     -0.630000       15.9994           0
      3344 MEMB     31       SAPE     C22      CTL2    -0.220000       12.0110           0
      3345 MEMB     31       SAPE     H2R      HAL2     0.900000E-01   1.00800           0
      3346 MEMB     31       SAPE     H2S      HAL2     0.900000E-01   1.00800           0
      3347 MEMB     31       SAPE     C3       CTL2     0.800000E-01   12.0110           0
      3348 MEMB     31       SAPE     HX       HAL2     0.900000E-01   1.00800           0
      3349 MEMB     31       SAPE     HY       HAL2     0.900000E-01   1.00800           0
      3350 MEMB     31       SAPE     O31      OSL     -0.490000       15.9994           0
      3351 MEMB     31       SAPE     C31      CL       0.900000       12.0110           0
      3352 MEMB     31       SAPE     O32      OBL     -0.630000       15.9994           0
      3353 MEMB     31       SAPE     C32      CTL2    -0.220000       12.0110           0
      3354 MEMB     31       SAPE     H2X      HAL2     0.900000E-01   1.00800           0
      3355 MEMB     31       SAPE     H2Y      HAL2     0.900000E-01   1.00800           0
      3356 MEMB     31       SAPE     C23      CTL2    -0.180000       12.0110           0
      3357 MEMB     31       SAPE     H3R      HAL2     0.900000E-01   1.00800           0
      3358 MEMB     31       SAPE     H3S      HAL2     0.900000E-01   1.00800           0
      3359 MEMB     31       SAPE     C24      CTL2    -0.180000       12.0110           0
      3360 MEMB     31       SAPE     H4R      HAL2     0.900000E-01   1.00800           0
      3361 MEMB     31       SAPE     H4S      HAL2     0.900000E-01   1.00800           0
      3362 MEMB     31       SAPE     C25      CEL1    -0.150000       12.0110           0
      3363 MEMB     31       SAPE     H5R      HEL1     0.150000       1.00800           0
      3364 MEMB     31       SAPE     C26      CEL1    -0.150000       12.0110           0
      3365 MEMB     31       SAPE     H6R      HEL1     0.150000       1.00800           0
      3366 MEMB     31       SAPE     C27      CTL2    -0.180000       12.0110           0
      3367 MEMB     31       SAPE     H7R      HAL2     0.900000E-01   1.00800           0
      3368 MEMB     31       SAPE     H7S      HAL2     0.900000E-01   1.00800           0
      3369 MEMB     31       SAPE     C28      CEL1    -0.150000       12.0110           0
      3370 MEMB     31       SAPE     H8R      HEL1     0.150000       1.00800           0
      3371 MEMB     31       SAPE     C29      CEL1    -0.150000       12.0110           0
      3372 MEMB     31       SAPE     H9R      HEL1     0.150000       1.00800           0
      3373 MEMB     31       SAPE     C210     CTL2    -0.180000       12.0110           0
      3374 MEMB     31       SAPE     H10R     HAL2     0.900000E-01   1.00800           0
      3375 MEMB     31       SAPE     H10S     HAL2     0.900000E-01   1.00800           0
      3376 MEMB     31       SAPE     C211     CEL1    -0.150000       12.0110           0
      3377 MEMB     31       SAPE     H11R     HEL1     0.150000       1.00800           0
      3378 MEMB     31       SAPE     C212     CEL1    -0.150000       12.0110           0
      3379 MEMB     31       SAPE     H12R     HEL1     0.150000       1.00800           0
      3380 MEMB     31       SAPE     C213     CTL2    -0.180000       12.0110           0
      3381 MEMB     31       SAPE     H13R     HAL2     0.900000E-01   1.00800           0
      3382 MEMB     31       SAPE     H13S     HAL2     0.900000E-01   1.00800           0
      3383 MEMB     31       SAPE     C214     CEL1    -0.150000       12.0110           0
      3384 MEMB     31       SAPE     H14R     HEL1     0.150000       1.00800           0
      3385 MEMB     31       SAPE     C215     CEL1    -0.150000       12.0110           0
      3386 MEMB     31       SAPE     H15R     HEL1     0.150000       1.00800           0
      3387 MEMB     31       SAPE     C216     CTL2    -0.180000       12.0110           0
      3388 MEMB     31       SAPE     H16R     HAL2     0.900000E-01   1.00800           0
      3389 MEMB     31       SAPE     H16S     HAL2     0.900000E-01   1.00800           0
      3390 MEMB     31       SAPE     C217     CTL2    -0.180000       12.0110           0
      3391 MEMB     31       SAPE     H17R     HAL2     0.900000E-01   1.00800           0
      3392 MEMB     31       SAPE     H17S     HAL2     0.900000E-01   1.00800           0
      3393 MEMB     31       SAPE     C218     CTL2    -0.180000       12.0110           0
      3394 MEMB     31       SAPE     H18R     HAL2     0.900000E-01   1.00800           0
      3395 MEMB     31       SAPE     H18S     HAL2     0.900000E-01   1.00800           0
      3396 MEMB     31       SAPE     C219     CTL2    -0.180000       12.0110           0
      3397 MEMB     31       SAPE     H19R     HAL2     0.900000E-01   1.00800           0
      3398 MEMB     31       SAPE     H19S     HAL2     0.900000E-01   1.00800           0
      3399 MEMB     31       SAPE     C220     CTL3    -0.270000       12.0110           0
      3400 MEMB     31       SAPE     H20R     HAL3     0.900000E-01   1.00800           0
      3401 MEMB     31       SAPE     H20S     HAL3     0.900000E-01   1.00800           0
      3402 MEMB     31       SAPE     H20T     HAL3     0.900000E-01   1.00800           0
      3403 MEMB     31       SAPE     C33      CTL2    -0.180000       12.0110           0
      3404 MEMB     31       SAPE     H3X      HAL2     0.900000E-01   1.00800           0
      3405 MEMB     31       SAPE     H3Y      HAL2     0.900000E-01   1.00800           0
      3406 MEMB     31       SAPE     C34      CTL2    -0.180000       12.0110           0
      3407 MEMB     31       SAPE     H4X      HAL2     0.900000E-01   1.00800           0
      3408 MEMB     31       SAPE     H4Y      HAL2     0.900000E-01   1.00800           0
      3409 MEMB     31       SAPE     C35      CTL2    -0.180000       12.0110           0
      3410 MEMB     31       SAPE     H5X      HAL2     0.900000E-01   1.00800           0
      3411 MEMB     31       SAPE     H5Y      HAL2     0.900000E-01   1.00800           0
      3412 MEMB     31       SAPE     C36      CTL2    -0.180000       12.0110           0
      3413 MEMB     31       SAPE     H6X      HAL2     0.900000E-01   1.00800           0
      3414 MEMB     31       SAPE     H6Y      HAL2     0.900000E-01   1.00800           0
      3415 MEMB     31       SAPE     C37      CTL2    -0.180000       12.0110           0
      3416 MEMB     31       SAPE     H7X      HAL2     0.900000E-01   1.00800           0
      3417 MEMB     31       SAPE     H7Y      HAL2     0.900000E-01   1.00800           0
      3418 MEMB     31       SAPE     C38      CTL2    -0.180000       12.0110           0
      3419 MEMB     31       SAPE     H8X      HAL2     0.900000E-01   1.00800           0
      3420 MEMB     31       SAPE     H8Y      HAL2     0.900000E-01   1.00800           0
      3421 MEMB     31       SAPE     C39      CTL2    -0.180000       12.0110           0
      3422 MEMB     31       SAPE     H9X      HAL2     0.900000E-01   1.00800           0
      3423 MEMB     31       SAPE     H9Y      HAL2     0.900000E-01   1.00800           0
      3424 MEMB     31       SAPE     C310     CTL2    -0.180000       12.0110           0
      3425 MEMB     31       SAPE     H10X     HAL2     0.900000E-01   1.00800           0
      3426 MEMB     31       SAPE     H10Y     HAL2     0.900000E-01   1.00800           0
      3427 MEMB     31       SAPE     C311     CTL2    -0.180000       12.0110           0
      3428 MEMB     31       SAPE     H11X     HAL2     0.900000E-01   1.00800           0
      3429 MEMB     31       SAPE     H11Y     HAL2     0.900000E-01   1.00800           0
      3430 MEMB     31       SAPE     C312     CTL2    -0.180000       12.0110           0
      3431 MEMB     31       SAPE     H12X     HAL2     0.900000E-01   1.00800           0
      3432 MEMB     31       SAPE     H12Y     HAL2     0.900000E-01   1.00800           0
      3433 MEMB     31       SAPE     C313     CTL2    -0.180000       12.0110           0
      3434 MEMB     31       SAPE     H13X     HAL2     0.900000E-01   1.00800           0
      3435 MEMB     31       SAPE     H13Y     HAL2     0.900000E-01   1.00800           0
      3436 MEMB     31       SAPE     C314     CTL2    -0.180000       12.0110           0
      3437 MEMB     31       SAPE     H14X     HAL2     0.900000E-01   1.00800           0
      3438 MEMB     31       SAPE     H14Y     HAL2     0.900000E-01   1.00800           0
      3439 MEMB     31       SAPE     C315     CTL2    -0.180000       12.0110           0
      3440 MEMB     31       SAPE     H15X     HAL2     0.900000E-01   1.00800           0
      3441 MEMB     31       SAPE     H15Y     HAL2     0.900000E-01   1.00800           0
      3442 MEMB     31       SAPE     C316     CTL2    -0.180000       12.0110           0
      3443 MEMB     31       SAPE     H16X     HAL2     0.900000E-01   1.00800           0
      3444 MEMB     31       SAPE     H16Y     HAL2     0.900000E-01   1.00800           0
      3445 MEMB     31       SAPE     C317     CTL2    -0.180000       12.0110           0
      3446 MEMB     31       SAPE     H17X     HAL2     0.900000E-01   1.00800           0
      3447 MEMB     31       SAPE     H17Y     HAL2     0.900000E-01   1.00800           0
      3448 MEMB     31       SAPE     C318     CTL3    -0.270000       12.0110           0
      3449 MEMB     31       SAPE     H18X     HAL3     0.900000E-01   1.00800           0
      3450 MEMB     31       SAPE     H18Y     HAL3     0.900000E-01   1.00800           0
      3451 MEMB     31       SAPE     H18Z     HAL3     0.900000E-01   1.00800           0
      3452 MEMB     32       SLPC     N        NTL     -0.600000       14.0070           0
      3453 MEMB     32       SLPC     C13      CTL5    -0.350000       12.0110           0
      3454 MEMB     32       SLPC     H13A     HL       0.250000       1.00800           0
      3455 MEMB     32       SLPC     H13B     HL       0.250000       1.00800           0
      3456 MEMB     32       SLPC     H13C     HL       0.250000       1.00800           0
      3457 MEMB     32       SLPC     C14      CTL5    -0.350000       12.0110           0
      3458 MEMB     32       SLPC     H14A     HL       0.250000       1.00800           0
      3459 MEMB     32       SLPC     H14B     HL       0.250000       1.00800           0
      3460 MEMB     32       SLPC     H14C     HL       0.250000       1.00800           0
      3461 MEMB     32       SLPC     C15      CTL5    -0.350000       12.0110           0
      3462 MEMB     32       SLPC     H15A     HL       0.250000       1.00800           0
      3463 MEMB     32       SLPC     H15B     HL       0.250000       1.00800           0
      3464 MEMB     32       SLPC     H15C     HL       0.250000       1.00800           0
      3465 MEMB     32       SLPC     C12      CTL2    -0.100000       12.0110           0
      3466 MEMB     32       SLPC     H12A     HL       0.250000       1.00800           0
      3467 MEMB     32       SLPC     H12B     HL       0.250000       1.00800           0
      3468 MEMB     32       SLPC     C11      CTL2    -0.800000E-01   12.0110           0
      3469 MEMB     32       SLPC     H11A     HAL2     0.900000E-01   1.00800           0
      3470 MEMB     32       SLPC     H11B     HAL2     0.900000E-01   1.00800           0
      3471 MEMB     32       SLPC     P        PL        1.50000       30.9740           0
      3472 MEMB     32       SLPC     O13      O2L     -0.780000       15.9994           0
      3473 MEMB     32       SLPC     O14      O2L     -0.780000       15.9994           0
      3474 MEMB     32       SLPC     O12      OSLP    -0.570000       15.9994           0
      3475 MEMB     32       SLPC     O11      OSLP    -0.570000       15.9994           0
      3476 MEMB     32       SLPC     C1       CTL2    -0.800000E-01   12.0110           0
      3477 MEMB     32       SLPC     HA       HAL2     0.900000E-01   1.00800           0
      3478 MEMB     32       SLPC     HB       HAL2     0.900000E-01   1.00800           0
      3479 MEMB     32       SLPC     C2       CTL1     0.170000       12.0110           0
      3480 MEMB     32       SLPC     HS       HAL1     0.900000E-01   1.00800           0
      3481 MEMB     32       SLPC     O21      OSL     -0.490000       15.9994           0
      3482 MEMB     32       SLPC     C21      CL       0.900000       12.0110           0
      3483 MEMB     32       SLPC     O22      OBL     -0.630000       15.9994           0
      3484 MEMB     32       SLPC     C22      CTL2    -0.220000       12.0110           0
      3485 MEMB     32       SLPC     H2R      HAL2     0.900000E-01   1.00800           0
      3486 MEMB     32       SLPC     H2S      HAL2     0.900000E-01   1.00800           0
      3487 MEMB     32       SLPC     C3       CTL2     0.800000E-01   12.0110           0
      3488 MEMB     32       SLPC     HX       HAL2     0.900000E-01   1.00800           0
      3489 MEMB     32       SLPC     HY       HAL2     0.900000E-01   1.00800           0
      3490 MEMB     32       SLPC     O31      OSL     -0.490000       15.9994           0
      3491 MEMB     32       SLPC     C31      CL       0.900000       12.0110           0
      3492 MEMB     32       SLPC     O32      OBL     -0.630000       15.9994           0
      3493 MEMB     32       SLPC     C32      CTL2    -0.220000       12.0110           0
      3494 MEMB     32       SLPC     H2X      HAL2     0.900000E-01   1.00800           0
      3495 MEMB     32       SLPC     H2Y      HAL2     0.900000E-01   1.00800           0
      3496 MEMB     32       SLPC     C23      CTL2    -0.180000       12.0110           0
      3497 MEMB     32       SLPC     H3R      HAL2     0.900000E-01   1.00800           0
      3498 MEMB     32       SLPC     H3S      HAL2     0.900000E-01   1.00800           0
      3499 MEMB     32       SLPC     C24      CTL2    -0.180000       12.0110           0
      3500 MEMB     32       SLPC     H4R      HAL2     0.900000E-01   1.00800           0
      3501 MEMB     32       SLPC     H4S      HAL2     0.900000E-01   1.00800           0
      3502 MEMB     32       SLPC     C25      CTL2    -0.180000       12.0110           0
      3503 MEMB     32       SLPC     H5R      HAL2     0.900000E-01   1.00800           0
      3504 MEMB     32       SLPC     H5S      HAL2     0.900000E-01   1.00800           0
      3505 MEMB     32       SLPC     C26      CTL2    -0.180000       12.0110           0
      3506 MEMB     32       SLPC     H6R      HAL2     0.900000E-01   1.00800           0
      3507 MEMB     32       SLPC     H6S      HAL2     0.900000E-01   1.00800           0
      3508 MEMB     32       SLPC     C27      CTL2    -0.180000       12.0110           0
      3509 MEMB     32       SLPC     H7R      HAL2     0.900000E-01   1.00800           0
      3510 MEMB     32       SLPC     H7S      HAL2     0.900000E-01   1.00800           0
      3511 MEMB     32       SLPC     C28      CTL2    -0.180000       12.0110           0
      3512 MEMB     32       SLPC     H8R      HAL2     0.900000E-01   1.00800           0
      3513 MEMB     32       SLPC     H8S      HAL2     0.900000E-01   1.00800           0
      3514 MEMB     32       SLPC     C29      CEL1    -0.150000       12.0110           0
      3515 MEMB     32       SLPC     H9R      HEL1     0.150000       1.00800           0
      3516 MEMB     32       SLPC     C210     CEL1    -0.150000       12.0110           0
      3517 MEMB     32       SLPC     H10R     HEL1     0.150000       1.00800           0
      3518 MEMB     32       SLPC     C211     CTL2    -0.180000       12.0110           0
      3519 MEMB     32       SLPC     H11R     HAL2     0.900000E-01   1.00800           0
      3520 MEMB     32       SLPC     H11S     HAL2     0.900000E-01   1.00800           0
      3521 MEMB     32       SLPC     C212     CEL1    -0.150000       12.0110           0
      3522 MEMB     32       SLPC     H12R     HEL1     0.150000       1.00800           0
      3523 MEMB     32       SLPC     C213     CEL1    -0.150000       12.0110           0
      3524 MEMB     32       SLPC     H13R     HEL1     0.150000       1.00800           0
      3525 MEMB     32       SLPC     C214     CTL2    -0.180000       12.0110           0
      3526 MEMB     32       SLPC     H14R     HAL2     0.900000E-01   1.00800           0
      3527 MEMB     32       SLPC     H14S     HAL2     0.900000E-01   1.00800           0
      3528 MEMB     32       SLPC     C215     CTL2    -0.180000       12.0110           0
      3529 MEMB     32       SLPC     H15R     HAL2     0.900000E-01   1.00800           0
      3530 MEMB     32       SLPC     H15S     HAL2     0.900000E-01   1.00800           0
      3531 MEMB     32       SLPC     C216     CTL2    -0.180000       12.0110           0
      3532 MEMB     32       SLPC     H16R     HAL2     0.900000E-01   1.00800           0
      3533 MEMB     32       SLPC     H16S     HAL2     0.900000E-01   1.00800           0
      3534 MEMB     32       SLPC     C217     CTL2    -0.180000       12.0110           0
      3535 MEMB     32       SLPC     H17R     HAL2     0.900000E-01   1.00800           0
      3536 MEMB     32       SLPC     H17S     HAL2     0.900000E-01   1.00800           0
      3537 MEMB     32       SLPC     C218     CTL3    -0.270000       12.0110           0
      3538 MEMB     32       SLPC     H18R     HAL3     0.900000E-01   1.00800           0
      3539 MEMB     32       SLPC     H18S     HAL3     0.900000E-01   1.00800           0
      3540 MEMB     32       SLPC     H18T     HAL3     0.900000E-01   1.00800           0
      3541 MEMB     32       SLPC     C33      CTL2    -0.180000       12.0110           0
      3542 MEMB     32       SLPC     H3X      HAL2     0.900000E-01   1.00800           0
      3543 MEMB     32       SLPC     H3Y      HAL2     0.900000E-01   1.00800           0
      3544 MEMB     32       SLPC     C34      CTL2    -0.180000       12.0110           0
      3545 MEMB     32       SLPC     H4X      HAL2     0.900000E-01   1.00800           0
      3546 MEMB     32       SLPC     H4Y      HAL2     0.900000E-01   1.00800           0
      3547 MEMB     32       SLPC     C35      CTL2    -0.180000       12.0110           0
      3548 MEMB     32       SLPC     H5X      HAL2     0.900000E-01   1.00800           0
      3549 MEMB     32       SLPC     H5Y      HAL2     0.900000E-01   1.00800           0
      3550 MEMB     32       SLPC     C36      CTL2    -0.180000       12.0110           0
      3551 MEMB     32       SLPC     H6X      HAL2     0.900000E-01   1.00800           0
      3552 MEMB     32       SLPC     H6Y      HAL2     0.900000E-01   1.00800           0
      3553 MEMB     32       SLPC     C37      CTL2    -0.180000       12.0110           0
      3554 MEMB     32       SLPC     H7X      HAL2     0.900000E-01   1.00800           0
      3555 MEMB     32       SLPC     H7Y      HAL2     0.900000E-01   1.00800           0
      3556 MEMB     32       SLPC     C38      CTL2    -0.180000       12.0110           0
      3557 MEMB     32       SLPC     H8X      HAL2     0.900000E-01   1.00800           0
      3558 MEMB     32       SLPC     H8Y      HAL2     0.900000E-01   1.00800           0
      3559 MEMB     32       SLPC     C39      CTL2    -0.180000       12.0110           0
      3560 MEMB     32       SLPC     H9X      HAL2     0.900000E-01   1.00800           0
      3561 MEMB     32       SLPC     H9Y      HAL2     0.900000E-01   1.00800           0
      3562 MEMB     32       SLPC     C310     CTL2    -0.180000       12.0110           0
      3563 MEMB     32       SLPC     H10X     HAL2     0.900000E-01   1.00800           0
      3564 MEMB     32       SLPC     H10Y     HAL2     0.900000E-01   1.00800           0
      3565 MEMB     32       SLPC     C311     CTL2    -0.180000       12.0110           0
      3566 MEMB     32       SLPC     H11X     HAL2     0.900000E-01   1.00800           0
      3567 MEMB     32       SLPC     H11Y     HAL2     0.900000E-01   1.00800           0
      3568 MEMB     32       SLPC     C312     CTL2    -0.180000       12.0110           0
      3569 MEMB     32       SLPC     H12X     HAL2     0.900000E-01   1.00800           0
      3570 MEMB     32       SLPC     H12Y     HAL2     0.900000E-01   1.00800           0
      3571 MEMB     32       SLPC     C313     CTL2    -0.180000       12.0110           0
      3572 MEMB     32       SLPC     H13X     HAL2     0.900000E-01   1.00800           0
      3573 MEMB     32       SLPC     H13Y     HAL2     0.900000E-01   1.00800           0
      3574 MEMB     32       SLPC     C314     CTL2    -0.180000       12.0110           0
      3575 MEMB     32       SLPC     H14X     HAL2     0.900000E-01   1.00800           0
      3576 MEMB     32       SLPC     H14Y     HAL2     0.900000E-01   1.00800           0
      3577 MEMB     32       SLPC     C315     CTL2    -0.180000       12.0110           0
      3578 MEMB     32       SLPC     H15X     HAL2     0.900000E-01   1.00800           0
      3579 MEMB     32       SLPC     H15Y     HAL2     0.900000E-01   1.00800           0
      3580 MEMB     32       SLPC     C316     CTL2    -0.180000       12.0110           0
      3581 MEMB     32       SLPC     H16X     HAL2     0.900000E-01   1.00800           0
      3582 MEMB     32       SLPC     H16Y     HAL2     0.900000E-01   1.00800           0
      3583 MEMB     32       SLPC     C317     CTL2    -0.180000       12.0110           0
      3584 MEMB     32       SLPC     H17X     HAL2     0.900000E-01   1.00800           0
      3585 MEMB     32       SLPC     H17Y     HAL2     0.900000E-01   1.00800           0
      3586 MEMB     32       SLPC     C318     CTL3    -0.270000       12.0110           0
      3587 MEMB     32       SLPC     H18X     HAL3     0.900000E-01   1.00800           0
      3588 MEMB     32       SLPC     H18Y     HAL3     0.900000E-01   1.00800           0
      3589 MEMB     32       SLPC     H18Z     HAL3     0.900000E-01   1.00800           0
      3590 MEMB     33       CHL1     C3       CRL1     0.140000       12.0110           0
      3591 MEMB     33       CHL1     H3       HGA1     0.900000E-01   1.00800           0
      3592 MEMB     33       CHL1     O3       OHL     -0.660000       15.9994           0
      3593 MEMB     33       CHL1     H3'      HOL      0.430000       1.00800           0
      3594 MEMB     33       CHL1     C4       CRL2    -0.180000       12.0110           0
      3595 MEMB     33       CHL1     H4A      HGA2     0.900000E-01   1.00800           0
      3596 MEMB     33       CHL1     H4B      HGA2     0.900000E-01   1.00800           0
      3597 MEMB     33       CHL1     C5       CEL1      0.00000       12.0110           0
      3598 MEMB     33       CHL1     C6       CEL1    -0.150000       12.0110           0
      3599 MEMB     33       CHL1     H6       HEL1     0.150000       1.00800           0
      3600 MEMB     33       CHL1     C7       CRL2    -0.180000       12.0110           0
      3601 MEMB     33       CHL1     H7A      HGA2     0.900000E-01   1.00800           0
      3602 MEMB     33       CHL1     H7B      HGA2     0.900000E-01   1.00800           0
      3603 MEMB     33       CHL1     C8       CRL1    -0.900000E-01   12.0110           0
      3604 MEMB     33       CHL1     H8       HGA1     0.900000E-01   1.00800           0
      3605 MEMB     33       CHL1     C14      CRL1    -0.900000E-01   12.0110           0
      3606 MEMB     33       CHL1     H14      HGA1     0.900000E-01   1.00800           0
      3607 MEMB     33       CHL1     C15      CRL2    -0.180000       12.0110           0
      3608 MEMB     33       CHL1     H15A     HGA2     0.900000E-01   1.00800           0
      3609 MEMB     33       CHL1     H15B     HGA2     0.900000E-01   1.00800           0
      3610 MEMB     33       CHL1     C16      CRL2    -0.180000       12.0110           0
      3611 MEMB     33       CHL1     H16A     HGA2     0.900000E-01   1.00800           0
      3612 MEMB     33       CHL1     H16B     HGA2     0.900000E-01   1.00800           0
      3613 MEMB     33       CHL1     C17      CRL1    -0.900000E-01   12.0110           0
      3614 MEMB     33       CHL1     H17      HGA1     0.900000E-01   1.00800           0
      3615 MEMB     33       CHL1     C13      CRL1      0.00000       12.0110           0
      3616 MEMB     33       CHL1     C18      CTL3    -0.270000       12.0110           0
      3617 MEMB     33       CHL1     H18A     HAL3     0.900000E-01   1.00800           0
      3618 MEMB     33       CHL1     H18B     HAL3     0.900000E-01   1.00800           0
      3619 MEMB     33       CHL1     H18C     HAL3     0.900000E-01   1.00800           0
      3620 MEMB     33       CHL1     C12      CRL2    -0.180000       12.0110           0
      3621 MEMB     33       CHL1     H12A     HGA2     0.900000E-01   1.00800           0
      3622 MEMB     33       CHL1     H12B     HGA2     0.900000E-01   1.00800           0
      3623 MEMB     33       CHL1     C11      CRL2    -0.180000       12.0110           0
      3624 MEMB     33       CHL1     H11A     HGA2     0.900000E-01   1.00800           0
      3625 MEMB     33       CHL1     H11B     HGA2     0.900000E-01   1.00800           0
      3626 MEMB     33       CHL1     C9       CRL1    -0.900000E-01   12.0110           0
      3627 MEMB     33       CHL1     H9       HGA1     0.900000E-01   1.00800           0
      3628 MEMB     33       CHL1     C10      CRL1      0.00000       12.0110           0
      3629 MEMB     33       CHL1     C19      CTL3    -0.270000       12.0110           0
      3630 MEMB     33       CHL1     H19A     HAL3     0.900000E-01   1.00800           0
      3631 MEMB     33       CHL1     H19B     HAL3     0.900000E-01   1.00800           0
      3632 MEMB     33       CHL1     H19C     HAL3     0.900000E-01   1.00800           0
      3633 MEMB     33       CHL1     C1       CRL2    -0.180000       12.0110           0
      3634 MEMB     33       CHL1     H1A      HGA2     0.900000E-01   1.00800           0
      3635 MEMB     33       CHL1     H1B      HGA2     0.900000E-01   1.00800           0
      3636 MEMB     33       CHL1     C2       CRL2    -0.180000       12.0110           0
      3637 MEMB     33       CHL1     H2A      HGA2     0.900000E-01   1.00800           0
      3638 MEMB     33       CHL1     H2B      HGA2     0.900000E-01   1.00800           0
      3639 MEMB     33       CHL1     C20      CTL1    -0.900000E-01   12.0110           0
      3640 MEMB     33       CHL1     H20      HAL1     0.900000E-01   1.00800           0
      3641 MEMB     33       CHL1     C21      CTL3    -0.270000       12.0110           0
      3642 MEMB     33       CHL1     H21A     HAL3     0.900000E-01   1.00800           0
      3643 MEMB     33       CHL1     H21B     HAL3     0.900000E-01   1.00800           0
      3644 MEMB     33       CHL1     H21C     HAL3     0.900000E-01   1.00800           0
      3645 MEMB     33       CHL1     C22      CTL2    -0.180000       12.0110           0
      3646 MEMB     33       CHL1     H22A     HAL2     0.900000E-01   1.00800           0
      3647 MEMB     33       CHL1     H22B     HAL2     0.900000E-01   1.00800           0
      3648 MEMB     33       CHL1     C23      CTL2    -0.180000       12.0110           0
      3649 MEMB     33       CHL1     H23A     HAL2     0.900000E-01   1.00800           0
      3650 MEMB     33       CHL1     H23B     HAL2     0.900000E-01   1.00800           0
      3651 MEMB     33       CHL1     C24      CTL2    -0.180000       12.0110           0
      3652 MEMB     33       CHL1     H24A     HAL2     0.900000E-01   1.00800           0
      3653 MEMB     33       CHL1     H24B     HAL2     0.900000E-01   1.00800           0
      3654 MEMB     33       CHL1     C25      CTL1    -0.900000E-01   12.0110           0
      3655 MEMB     33       CHL1     H25      HAL1     0.900000E-01   1.00800           0
      3656 MEMB     33       CHL1     C26      CTL3    -0.270000       12.0110           0
      3657 MEMB     33       CHL1     H26A     HAL3     0.900000E-01   1.00800           0
      3658 MEMB     33       CHL1     H26B     HAL3     0.900000E-01   1.00800           0
      3659 MEMB     33       CHL1     H26C     HAL3     0.900000E-01   1.00800           0
      3660 MEMB     33       CHL1     C27      CTL3    -0.270000       12.0110           0
      3661 MEMB     33       CHL1     H27A     HAL3     0.900000E-01   1.00800           0
      3662 MEMB     33       CHL1     H27B     HAL3     0.900000E-01   1.00800           0
      3663 MEMB     33       CHL1     H27C     HAL3     0.900000E-01   1.00800           0
      3664 MEMB     34       SAPE     N        NH3L    -0.300000       14.0070           0
      3665 MEMB     34       SAPE     HN1      HCL      0.330000       1.00800           0
      3666 MEMB     34       SAPE     HN2      HCL      0.330000       1.00800           0
      3667 MEMB     34       SAPE     HN3      HCL      0.330000       1.00800           0
      3668 MEMB     34       SAPE     C12      CTL2     0.130000       12.0110           0
      3669 MEMB     34       SAPE     H12A     HAL2     0.900000E-01   1.00800           0
      3670 MEMB     34       SAPE     H12B     HAL2     0.900000E-01   1.00800           0
      3671 MEMB     34       SAPE     C11      CTL2    -0.800000E-01   12.0110           0
      3672 MEMB     34       SAPE     H11A     HAL2     0.900000E-01   1.00800           0
      3673 MEMB     34       SAPE     H11B     HAL2     0.900000E-01   1.00800           0
      3674 MEMB     34       SAPE     P        PL        1.50000       30.9740           0
      3675 MEMB     34       SAPE     O13      O2L     -0.780000       15.9994           0
      3676 MEMB     34       SAPE     O14      O2L     -0.780000       15.9994           0
      3677 MEMB     34       SAPE     O12      OSLP    -0.570000       15.9994           0
      3678 MEMB     34       SAPE     O11      OSLP    -0.570000       15.9994           0
      3679 MEMB     34       SAPE     C1       CTL2    -0.800000E-01   12.0110           0
      3680 MEMB     34       SAPE     HA       HAL2     0.900000E-01   1.00800           0
      3681 MEMB     34       SAPE     HB       HAL2     0.900000E-01   1.00800           0
      3682 MEMB     34       SAPE     C2       CTL1     0.170000       12.0110           0
      3683 MEMB     34       SAPE     HS       HAL1     0.900000E-01   1.00800           0
      3684 MEMB     34       SAPE     O21      OSL     -0.490000       15.9994           0
      3685 MEMB     34       SAPE     C21      CL       0.900000       12.0110           0
      3686 MEMB     34       SAPE     O22      OBL     -0.630000       15.9994           0
      3687 MEMB     34       SAPE     C22      CTL2    -0.220000       12.0110           0
      3688 MEMB     34       SAPE     H2R      HAL2     0.900000E-01   1.00800           0
      3689 MEMB     34       SAPE     H2S      HAL2     0.900000E-01   1.00800           0
      3690 MEMB     34       SAPE     C3       CTL2     0.800000E-01   12.0110           0
      3691 MEMB     34       SAPE     HX       HAL2     0.900000E-01   1.00800           0
      3692 MEMB     34       SAPE     HY       HAL2     0.900000E-01   1.00800           0
      3693 MEMB     34       SAPE     O31      OSL     -0.490000       15.9994           0
      3694 MEMB     34       SAPE     C31      CL       0.900000       12.0110           0
      3695 MEMB     34       SAPE     O32      OBL     -0.630000       15.9994           0
      3696 MEMB     34       SAPE     C32      CTL2    -0.220000       12.0110           0
      3697 MEMB     34       SAPE     H2X      HAL2     0.900000E-01   1.00800           0
      3698 MEMB     34       SAPE     H2Y      HAL2     0.900000E-01   1.00800           0
      3699 MEMB     34       SAPE     C23      CTL2    -0.180000       12.0110           0
      3700 MEMB     34       SAPE     H3R      HAL2     0.900000E-01   1.00800           0
      3701 MEMB     34       SAPE     H3S      HAL2     0.900000E-01   1.00800           0
      3702 MEMB     34       SAPE     C24      CTL2    -0.180000       12.0110           0
      3703 MEMB     34       SAPE     H4R      HAL2     0.900000E-01   1.00800           0
      3704 MEMB     34       SAPE     H4S      HAL2     0.900000E-01   1.00800           0
      3705 MEMB     34       SAPE     C25      CEL1    -0.150000       12.0110           0
      3706 MEMB     34       SAPE     H5R      HEL1     0.150000       1.00800           0
      3707 MEMB     34       SAPE     C26      CEL1    -0.150000       12.0110           0
      3708 MEMB     34       SAPE     H6R      HEL1     0.150000       1.00800           0
      3709 MEMB     34       SAPE     C27      CTL2    -0.180000       12.0110           0
      3710 MEMB     34       SAPE     H7R      HAL2     0.900000E-01   1.00800           0
      3711 MEMB     34       SAPE     H7S      HAL2     0.900000E-01   1.00800           0
      3712 MEMB     34       SAPE     C28      CEL1    -0.150000       12.0110           0
      3713 MEMB     34       SAPE     H8R      HEL1     0.150000       1.00800           0
      3714 MEMB     34       SAPE     C29      CEL1    -0.150000       12.0110           0
      3715 MEMB     34       SAPE     H9R      HEL1     0.150000       1.00800           0
      3716 MEMB     34       SAPE     C210     CTL2    -0.180000       12.0110           0
      3717 MEMB     34       SAPE     H10R     HAL2     0.900000E-01   1.00800           0
      3718 MEMB     34       SAPE     H10S     HAL2     0.900000E-01   1.00800           0
      3719 MEMB     34       SAPE     C211     CEL1    -0.150000       12.0110           0
      3720 MEMB     34       SAPE     H11R     HEL1     0.150000       1.00800           0
      3721 MEMB     34       SAPE     C212     CEL1    -0.150000       12.0110           0
      3722 MEMB     34       SAPE     H12R     HEL1     0.150000       1.00800           0
      3723 MEMB     34       SAPE     C213     CTL2    -0.180000       12.0110           0
      3724 MEMB     34       SAPE     H13R     HAL2     0.900000E-01   1.00800           0
      3725 MEMB     34       SAPE     H13S     HAL2     0.900000E-01   1.00800           0
      3726 MEMB     34       SAPE     C214     CEL1    -0.150000       12.0110           0
      3727 MEMB     34       SAPE     H14R     HEL1     0.150000       1.00800           0
      3728 MEMB     34       SAPE     C215     CEL1    -0.150000       12.0110           0
      3729 MEMB     34       SAPE     H15R     HEL1     0.150000       1.00800           0
      3730 MEMB     34       SAPE     C216     CTL2    -0.180000       12.0110           0
      3731 MEMB     34       SAPE     H16R     HAL2     0.900000E-01   1.00800           0
      3732 MEMB     34       SAPE     H16S     HAL2     0.900000E-01   1.00800           0
      3733 MEMB     34       SAPE     C217     CTL2    -0.180000       12.0110           0
      3734 MEMB     34       SAPE     H17R     HAL2     0.900000E-01   1.00800           0
      3735 MEMB     34       SAPE     H17S     HAL2     0.900000E-01   1.00800           0
      3736 MEMB     34       SAPE     C218     CTL2    -0.180000       12.0110           0
      3737 MEMB     34       SAPE     H18R     HAL2     0.900000E-01   1.00800           0
      3738 MEMB     34       SAPE     H18S     HAL2     0.900000E-01   1.00800           0
      3739 MEMB     34       SAPE     C219     CTL2    -0.180000       12.0110           0
      3740 MEMB     34       SAPE     H19R     HAL2     0.900000E-01   1.00800           0
      3741 MEMB     34       SAPE     H19S     HAL2     0.900000E-01   1.00800           0
      3742 MEMB     34       SAPE     C220     CTL3    -0.270000       12.0110           0
      3743 MEMB     34       SAPE     H20R     HAL3     0.900000E-01   1.00800           0
      3744 MEMB     34       SAPE     H20S     HAL3     0.900000E-01   1.00800           0
      3745 MEMB     34       SAPE     H20T     HAL3     0.900000E-01   1.00800           0
      3746 MEMB     34       SAPE     C33      CTL2    -0.180000       12.0110           0
      3747 MEMB     34       SAPE     H3X      HAL2     0.900000E-01   1.00800           0
      3748 MEMB     34       SAPE     H3Y      HAL2     0.900000E-01   1.00800           0
      3749 MEMB     34       SAPE     C34      CTL2    -0.180000       12.0110           0
      3750 MEMB     34       SAPE     H4X      HAL2     0.900000E-01   1.00800           0
      3751 MEMB     34       SAPE     H4Y      HAL2     0.900000E-01   1.00800           0
      3752 MEMB     34       SAPE     C35      CTL2    -0.180000       12.0110           0
      3753 MEMB     34       SAPE     H5X      HAL2     0.900000E-01   1.00800           0
      3754 MEMB     34       SAPE     H5Y      HAL2     0.900000E-01   1.00800           0
      3755 MEMB     34       SAPE     C36      CTL2    -0.180000       12.0110           0
      3756 MEMB     34       SAPE     H6X      HAL2     0.900000E-01   1.00800           0
      3757 MEMB     34       SAPE     H6Y      HAL2     0.900000E-01   1.00800           0
      3758 MEMB     34       SAPE     C37      CTL2    -0.180000       12.0110           0
      3759 MEMB     34       SAPE     H7X      HAL2     0.900000E-01   1.00800           0
      3760 MEMB     34       SAPE     H7Y      HAL2     0.900000E-01   1.00800           0
      3761 MEMB     34       SAPE     C38      CTL2    -0.180000       12.0110           0
      3762 MEMB     34       SAPE     H8X      HAL2     0.900000E-01   1.00800           0
      3763 MEMB     34       SAPE     H8Y      HAL2     0.900000E-01   1.00800           0
      3764 MEMB     34       SAPE     C39      CTL2    -0.180000       12.0110           0
      3765 MEMB     34       SAPE     H9X      HAL2     0.900000E-01   1.00800           0
      3766 MEMB     34       SAPE     H9Y      HAL2     0.900000E-01   1.00800           0
      3767 MEMB     34       SAPE     C310     CTL2    -0.180000       12.0110           0
      3768 MEMB     34       SAPE     H10X     HAL2     0.900000E-01   1.00800           0
      3769 MEMB     34       SAPE     H10Y     HAL2     0.900000E-01   1.00800           0
      3770 MEMB     34       SAPE     C311     CTL2    -0.180000       12.0110           0
      3771 MEMB     34       SAPE     H11X     HAL2     0.900000E-01   1.00800           0
      3772 MEMB     34       SAPE     H11Y     HAL2     0.900000E-01   1.00800           0
      3773 MEMB     34       SAPE     C312     CTL2    -0.180000       12.0110           0
      3774 MEMB     34       SAPE     H12X     HAL2     0.900000E-01   1.00800           0
      3775 MEMB     34       SAPE     H12Y     HAL2     0.900000E-01   1.00800           0
      3776 MEMB     34       SAPE     C313     CTL2    -0.180000       12.0110           0
      3777 MEMB     34       SAPE     H13X     HAL2     0.900000E-01   1.00800           0
      3778 MEMB     34       SAPE     H13Y     HAL2     0.900000E-01   1.00800           0
      3779 MEMB     34       SAPE     C314     CTL2    -0.180000       12.0110           0
      3780 MEMB     34       SAPE     H14X     HAL2     0.900000E-01   1.00800           0
      3781 MEMB     34       SAPE     H14Y     HAL2     0.900000E-01   1.00800           0
      3782 MEMB     34       SAPE     C315     CTL2    -0.180000       12.0110           0
      3783 MEMB     34       SAPE     H15X     HAL2     0.900000E-01   1.00800           0
      3784 MEMB     34       SAPE     H15Y     HAL2     0.900000E-01   1.00800           0
      3785 MEMB     34       SAPE     C316     CTL2    -0.180000       12.0110           0
      3786 MEMB     34       SAPE     H16X     HAL2     0.900000E-01   1.00800           0
      3787 MEMB     34       SAPE     H16Y     HAL2     0.900000E-01   1.00800           0
      3788 MEMB     34       SAPE     C317     CTL2    -0.180000       12.0110           0
      3789 MEMB     34       SAPE     H17X     HAL2     0.900000E-01   1.00800           0
      3790 MEMB     34       SAPE     H17Y     HAL2     0.900000E-01   1.00800           0
      3791 MEMB     34       SAPE     C318     CTL3    -0.270000       12.0110           0
      3792 MEMB     34       SAPE     H18X     HAL3     0.900000E-01   1.00800           0
      3793 MEMB     34       SAPE     H18Y     HAL3     0.900000E-01   1.00800           0
      3794 MEMB     34       SAPE     H18Z     HAL3     0.900000E-01   1.00800           0
      3795 MEMB     35       CHL1     C3       CRL1     0.140000       12.0110           0
      3796 MEMB     35       CHL1     H3       HGA1     0.900000E-01   1.00800           0
      3797 MEMB     35       CHL1     O3       OHL     -0.660000       15.9994           0
      3798 MEMB     35       CHL1     H3'      HOL      0.430000       1.00800           0
      3799 MEMB     35       CHL1     C4       CRL2    -0.180000       12.0110           0
      3800 MEMB     35       CHL1     H4A      HGA2     0.900000E-01   1.00800           0
      3801 MEMB     35       CHL1     H4B      HGA2     0.900000E-01   1.00800           0
      3802 MEMB     35       CHL1     C5       CEL1      0.00000       12.0110           0
      3803 MEMB     35       CHL1     C6       CEL1    -0.150000       12.0110           0
      3804 MEMB     35       CHL1     H6       HEL1     0.150000       1.00800           0
      3805 MEMB     35       CHL1     C7       CRL2    -0.180000       12.0110           0
      3806 MEMB     35       CHL1     H7A      HGA2     0.900000E-01   1.00800           0
      3807 MEMB     35       CHL1     H7B      HGA2     0.900000E-01   1.00800           0
      3808 MEMB     35       CHL1     C8       CRL1    -0.900000E-01   12.0110           0
      3809 MEMB     35       CHL1     H8       HGA1     0.900000E-01   1.00800           0
      3810 MEMB     35       CHL1     C14      CRL1    -0.900000E-01   12.0110           0
      3811 MEMB     35       CHL1     H14      HGA1     0.900000E-01   1.00800           0
      3812 MEMB     35       CHL1     C15      CRL2    -0.180000       12.0110           0
      3813 MEMB     35       CHL1     H15A     HGA2     0.900000E-01   1.00800           0
      3814 MEMB     35       CHL1     H15B     HGA2     0.900000E-01   1.00800           0
      3815 MEMB     35       CHL1     C16      CRL2    -0.180000       12.0110           0
      3816 MEMB     35       CHL1     H16A     HGA2     0.900000E-01   1.00800           0
      3817 MEMB     35       CHL1     H16B     HGA2     0.900000E-01   1.00800           0
      3818 MEMB     35       CHL1     C17      CRL1    -0.900000E-01   12.0110           0
      3819 MEMB     35       CHL1     H17      HGA1     0.900000E-01   1.00800           0
      3820 MEMB     35       CHL1     C13      CRL1      0.00000       12.0110           0
      3821 MEMB     35       CHL1     C18      CTL3    -0.270000       12.0110           0
      3822 MEMB     35       CHL1     H18A     HAL3     0.900000E-01   1.00800           0
      3823 MEMB     35       CHL1     H18B     HAL3     0.900000E-01   1.00800           0
      3824 MEMB     35       CHL1     H18C     HAL3     0.900000E-01   1.00800           0
      3825 MEMB     35       CHL1     C12      CRL2    -0.180000       12.0110           0
      3826 MEMB     35       CHL1     H12A     HGA2     0.900000E-01   1.00800           0
      3827 MEMB     35       CHL1     H12B     HGA2     0.900000E-01   1.00800           0
      3828 MEMB     35       CHL1     C11      CRL2    -0.180000       12.0110           0
      3829 MEMB     35       CHL1     H11A     HGA2     0.900000E-01   1.00800           0
      3830 MEMB     35       CHL1     H11B     HGA2     0.900000E-01   1.00800           0
      3831 MEMB     35       CHL1     C9       CRL1    -0.900000E-01   12.0110           0
      3832 MEMB     35       CHL1     H9       HGA1     0.900000E-01   1.00800           0
      3833 MEMB     35       CHL1     C10      CRL1      0.00000       12.0110           0
      3834 MEMB     35       CHL1     C19      CTL3    -0.270000       12.0110           0
      3835 MEMB     35       CHL1     H19A     HAL3     0.900000E-01   1.00800           0
      3836 MEMB     35       CHL1     H19B     HAL3     0.900000E-01   1.00800           0
      3837 MEMB     35       CHL1     H19C     HAL3     0.900000E-01   1.00800           0
      3838 MEMB     35       CHL1     C1       CRL2    -0.180000       12.0110           0
      3839 MEMB     35       CHL1     H1A      HGA2     0.900000E-01   1.00800           0
      3840 MEMB     35       CHL1     H1B      HGA2     0.900000E-01   1.00800           0
      3841 MEMB     35       CHL1     C2       CRL2    -0.180000       12.0110           0
      3842 MEMB     35       CHL1     H2A      HGA2     0.900000E-01   1.00800           0
      3843 MEMB     35       CHL1     H2B      HGA2     0.900000E-01   1.00800           0
      3844 MEMB     35       CHL1     C20      CTL1    -0.900000E-01   12.0110           0
      3845 MEMB     35       CHL1     H20      HAL1     0.900000E-01   1.00800           0
      3846 MEMB     35       CHL1     C21      CTL3    -0.270000       12.0110           0
      3847 MEMB     35       CHL1     H21A     HAL3     0.900000E-01   1.00800           0
      3848 MEMB     35       CHL1     H21B     HAL3     0.900000E-01   1.00800           0
      3849 MEMB     35       CHL1     H21C     HAL3     0.900000E-01   1.00800           0
      3850 MEMB     35       CHL1     C22      CTL2    -0.180000       12.0110           0
      3851 MEMB     35       CHL1     H22A     HAL2     0.900000E-01   1.00800           0
      3852 MEMB     35       CHL1     H22B     HAL2     0.900000E-01   1.00800           0
      3853 MEMB     35       CHL1     C23      CTL2    -0.180000       12.0110           0
      3854 MEMB     35       CHL1     H23A     HAL2     0.900000E-01   1.00800           0
      3855 MEMB     35       CHL1     H23B     HAL2     0.900000E-01   1.00800           0
      3856 MEMB     35       CHL1     C24      CTL2    -0.180000       12.0110           0
      3857 MEMB     35       CHL1     H24A     HAL2     0.900000E-01   1.00800           0
      3858 MEMB     35       CHL1     H24B     HAL2     0.900000E-01   1.00800           0
      3859 MEMB     35       CHL1     C25      CTL1    -0.900000E-01   12.0110           0
      3860 MEMB     35       CHL1     H25      HAL1     0.900000E-01   1.00800           0
      3861 MEMB     35       CHL1     C26      CTL3    -0.270000       12.0110           0
      3862 MEMB     35       CHL1     H26A     HAL3     0.900000E-01   1.00800           0
      3863 MEMB     35       CHL1     H26B     HAL3     0.900000E-01   1.00800           0
      3864 MEMB     35       CHL1     H26C     HAL3     0.900000E-01   1.00800           0
      3865 MEMB     35       CHL1     C27      CTL3    -0.270000       12.0110           0
      3866 MEMB     35       CHL1     H27A     HAL3     0.900000E-01   1.00800           0
      3867 MEMB     35       CHL1     H27B     HAL3     0.900000E-01   1.00800           0
      3868 MEMB     35       CHL1     H27C     HAL3     0.900000E-01   1.00800           0
      3869 MEMB     36       CHL1     C3       CRL1     0.140000       12.0110           0
      3870 MEMB     36       CHL1     H3       HGA1     0.900000E-01   1.00800           0
      3871 MEMB     36       CHL1     O3       OHL     -0.660000       15.9994           0
      3872 MEMB     36       CHL1     H3'      HOL      0.430000       1.00800           0
      3873 MEMB     36       CHL1     C4       CRL2    -0.180000       12.0110           0
      3874 MEMB     36       CHL1     H4A      HGA2     0.900000E-01   1.00800           0
      3875 MEMB     36       CHL1     H4B      HGA2     0.900000E-01   1.00800           0
      3876 MEMB     36       CHL1     C5       CEL1      0.00000       12.0110           0
      3877 MEMB     36       CHL1     C6       CEL1    -0.150000       12.0110           0
      3878 MEMB     36       CHL1     H6       HEL1     0.150000       1.00800           0
      3879 MEMB     36       CHL1     C7       CRL2    -0.180000       12.0110           0
      3880 MEMB     36       CHL1     H7A      HGA2     0.900000E-01   1.00800           0
      3881 MEMB     36       CHL1     H7B      HGA2     0.900000E-01   1.00800           0
      3882 MEMB     36       CHL1     C8       CRL1    -0.900000E-01   12.0110           0
      3883 MEMB     36       CHL1     H8       HGA1     0.900000E-01   1.00800           0
      3884 MEMB     36       CHL1     C14      CRL1    -0.900000E-01   12.0110           0
      3885 MEMB     36       CHL1     H14      HGA1     0.900000E-01   1.00800           0
      3886 MEMB     36       CHL1     C15      CRL2    -0.180000       12.0110           0
      3887 MEMB     36       CHL1     H15A     HGA2     0.900000E-01   1.00800           0
      3888 MEMB     36       CHL1     H15B     HGA2     0.900000E-01   1.00800           0
      3889 MEMB     36       CHL1     C16      CRL2    -0.180000       12.0110           0
      3890 MEMB     36       CHL1     H16A     HGA2     0.900000E-01   1.00800           0
      3891 MEMB     36       CHL1     H16B     HGA2     0.900000E-01   1.00800           0
      3892 MEMB     36       CHL1     C17      CRL1    -0.900000E-01   12.0110           0
      3893 MEMB     36       CHL1     H17      HGA1     0.900000E-01   1.00800           0
      3894 MEMB     36       CHL1     C13      CRL1      0.00000       12.0110           0
      3895 MEMB     36       CHL1     C18      CTL3    -0.270000       12.0110           0
      3896 MEMB     36       CHL1     H18A     HAL3     0.900000E-01   1.00800           0
      3897 MEMB     36       CHL1     H18B     HAL3     0.900000E-01   1.00800           0
      3898 MEMB     36       CHL1     H18C     HAL3     0.900000E-01   1.00800           0
      3899 MEMB     36       CHL1     C12      CRL2    -0.180000       12.0110           0
      3900 MEMB     36       CHL1     H12A     HGA2     0.900000E-01   1.00800           0
      3901 MEMB     36       CHL1     H12B     HGA2     0.900000E-01   1.00800           0
      3902 MEMB     36       CHL1     C11      CRL2    -0.180000       12.0110           0
      3903 MEMB     36       CHL1     H11A     HGA2     0.900000E-01   1.00800           0
      3904 MEMB     36       CHL1     H11B     HGA2     0.900000E-01   1.00800           0
      3905 MEMB     36       CHL1     C9       CRL1    -0.900000E-01   12.0110           0
      3906 MEMB     36       CHL1     H9       HGA1     0.900000E-01   1.00800           0
      3907 MEMB     36       CHL1     C10      CRL1      0.00000       12.0110           0
      3908 MEMB     36       CHL1     C19      CTL3    -0.270000       12.0110           0
      3909 MEMB     36       CHL1     H19A     HAL3     0.900000E-01   1.00800           0
      3910 MEMB     36       CHL1     H19B     HAL3     0.900000E-01   1.00800           0
      3911 MEMB     36       CHL1     H19C     HAL3     0.900000E-01   1.00800           0
      3912 MEMB     36       CHL1     C1       CRL2    -0.180000       12.0110           0
      3913 MEMB     36       CHL1     H1A      HGA2     0.900000E-01   1.00800           0
      3914 MEMB     36       CHL1     H1B      HGA2     0.900000E-01   1.00800           0
      3915 MEMB     36       CHL1     C2       CRL2    -0.180000       12.0110           0
      3916 MEMB     36       CHL1     H2A      HGA2     0.900000E-01   1.00800           0
      3917 MEMB     36       CHL1     H2B      HGA2     0.900000E-01   1.00800           0
      3918 MEMB     36       CHL1     C20      CTL1    -0.900000E-01   12.0110           0
      3919 MEMB     36       CHL1     H20      HAL1     0.900000E-01   1.00800           0
      3920 MEMB     36       CHL1     C21      CTL3    -0.270000       12.0110           0
      3921 MEMB     36       CHL1     H21A     HAL3     0.900000E-01   1.00800           0
      3922 MEMB     36       CHL1     H21B     HAL3     0.900000E-01   1.00800           0
      3923 MEMB     36       CHL1     H21C     HAL3     0.900000E-01   1.00800           0
      3924 MEMB     36       CHL1     C22      CTL2    -0.180000       12.0110           0
      3925 MEMB     36       CHL1     H22A     HAL2     0.900000E-01   1.00800           0
      3926 MEMB     36       CHL1     H22B     HAL2     0.900000E-01   1.00800           0
      3927 MEMB     36       CHL1     C23      CTL2    -0.180000       12.0110           0
      3928 MEMB     36       CHL1     H23A     HAL2     0.900000E-01   1.00800           0
      3929 MEMB     36       CHL1     H23B     HAL2     0.900000E-01   1.00800           0
      3930 MEMB     36       CHL1     C24      CTL2    -0.180000       12.0110           0
      3931 MEMB     36       CHL1     H24A     HAL2     0.900000E-01   1.00800           0
      3932 MEMB     36       CHL1     H24B     HAL2     0.900000E-01   1.00800           0
      3933 MEMB     36       CHL1     C25      CTL1    -0.900000E-01   12.0110           0
      3934 MEMB     36       CHL1     H25      HAL1     0.900000E-01   1.00800           0
      3935 MEMB     36       CHL1     C26      CTL3    -0.270000       12.0110           0
      3936 MEMB     36       CHL1     H26A     HAL3     0.900000E-01   1.00800           0
      3937 MEMB     36       CHL1     H26B     HAL3     0.900000E-01   1.00800           0
      3938 MEMB     36       CHL1     H26C     HAL3     0.900000E-01   1.00800           0
      3939 MEMB     36       CHL1     C27      CTL3    -0.270000       12.0110           0
      3940 MEMB     36       CHL1     H27A     HAL3     0.900000E-01   1.00800           0
      3941 MEMB     36       CHL1     H27B     HAL3     0.900000E-01   1.00800           0
      3942 MEMB     36       CHL1     H27C     HAL3     0.900000E-01   1.00800           0
      3943 MEMB     37       SAPS     N        NH3L    -0.300000       14.0070           0
      3944 MEMB     37       SAPS     HN1      HCL      0.330000       1.00800           0
      3945 MEMB     37       SAPS     HN2      HCL      0.330000       1.00800           0
      3946 MEMB     37       SAPS     HN3      HCL      0.330000       1.00800           0
      3947 MEMB     37       SAPS     C12      CTL1     0.210000       12.0110           0
      3948 MEMB     37       SAPS     H12A     HBL      0.100000       1.00800           0
      3949 MEMB     37       SAPS     C13      CCL      0.340000       12.0110           0
      3950 MEMB     37       SAPS     O13A     OCL     -0.670000       15.9994           0
      3951 MEMB     37       SAPS     O13B     OCL     -0.670000       15.9994           0
      3952 MEMB     37       SAPS     C11      CTL2    -0.800000E-01   12.0110           0
      3953 MEMB     37       SAPS     H11A     HAL2     0.900000E-01   1.00800           0
      3954 MEMB     37       SAPS     H11B     HAL2     0.900000E-01   1.00800           0
      3955 MEMB     37       SAPS     P        PL        1.50000       30.9740           0
      3956 MEMB     37       SAPS     O13      O2L     -0.780000       15.9994           0
      3957 MEMB     37       SAPS     O14      O2L     -0.780000       15.9994           0
      3958 MEMB     37       SAPS     O12      OSLP    -0.570000       15.9994           0
      3959 MEMB     37       SAPS     O11      OSLP    -0.570000       15.9994           0
      3960 MEMB     37       SAPS     C1       CTL2    -0.800000E-01   12.0110           0
      3961 MEMB     37       SAPS     HA       HAL2     0.900000E-01   1.00800           0
      3962 MEMB     37       SAPS     HB       HAL2     0.900000E-01   1.00800           0
      3963 MEMB     37       SAPS     C2       CTL1     0.170000       12.0110           0
      3964 MEMB     37       SAPS     HS       HAL1     0.900000E-01   1.00800           0
      3965 MEMB     37       SAPS     O21      OSL     -0.490000       15.9994           0
      3966 MEMB     37       SAPS     C21      CL       0.900000       12.0110           0
      3967 MEMB     37       SAPS     O22      OBL     -0.630000       15.9994           0
      3968 MEMB     37       SAPS     C22      CTL2    -0.220000       12.0110           0
      3969 MEMB     37       SAPS     H2R      HAL2     0.900000E-01   1.00800           0
      3970 MEMB     37       SAPS     H2S      HAL2     0.900000E-01   1.00800           0
      3971 MEMB     37       SAPS     C3       CTL2     0.800000E-01   12.0110           0
      3972 MEMB     37       SAPS     HX       HAL2     0.900000E-01   1.00800           0
      3973 MEMB     37       SAPS     HY       HAL2     0.900000E-01   1.00800           0
      3974 MEMB     37       SAPS     O31      OSL     -0.490000       15.9994           0
      3975 MEMB     37       SAPS     C31      CL       0.900000       12.0110           0
      3976 MEMB     37       SAPS     O32      OBL     -0.630000       15.9994           0
      3977 MEMB     37       SAPS     C32      CTL2    -0.220000       12.0110           0
      3978 MEMB     37       SAPS     H2X      HAL2     0.900000E-01   1.00800           0
      3979 MEMB     37       SAPS     H2Y      HAL2     0.900000E-01   1.00800           0
      3980 MEMB     37       SAPS     C23      CTL2    -0.180000       12.0110           0
      3981 MEMB     37       SAPS     H3R      HAL2     0.900000E-01   1.00800           0
      3982 MEMB     37       SAPS     H3S      HAL2     0.900000E-01   1.00800           0
      3983 MEMB     37       SAPS     C24      CTL2    -0.180000       12.0110           0
      3984 MEMB     37       SAPS     H4R      HAL2     0.900000E-01   1.00800           0
      3985 MEMB     37       SAPS     H4S      HAL2     0.900000E-01   1.00800           0
      3986 MEMB     37       SAPS     C25      CEL1    -0.150000       12.0110           0
      3987 MEMB     37       SAPS     H5R      HEL1     0.150000       1.00800           0
      3988 MEMB     37       SAPS     C26      CEL1    -0.150000       12.0110           0
      3989 MEMB     37       SAPS     H6R      HEL1     0.150000       1.00800           0
      3990 MEMB     37       SAPS     C27      CTL2    -0.180000       12.0110           0
      3991 MEMB     37       SAPS     H7R      HAL2     0.900000E-01   1.00800           0
      3992 MEMB     37       SAPS     H7S      HAL2     0.900000E-01   1.00800           0
      3993 MEMB     37       SAPS     C28      CEL1    -0.150000       12.0110           0
      3994 MEMB     37       SAPS     H8R      HEL1     0.150000       1.00800           0
      3995 MEMB     37       SAPS     C29      CEL1    -0.150000       12.0110           0
      3996 MEMB     37       SAPS     H9R      HEL1     0.150000       1.00800           0
      3997 MEMB     37       SAPS     C210     CTL2    -0.180000       12.0110           0
      3998 MEMB     37       SAPS     H10R     HAL2     0.900000E-01   1.00800           0
      3999 MEMB     37       SAPS     H10S     HAL2     0.900000E-01   1.00800           0
      4000 MEMB     37       SAPS     C211     CEL1    -0.150000       12.0110           0
      4001 MEMB     37       SAPS     H11R     HEL1     0.150000       1.00800           0
      4002 MEMB     37       SAPS     C212     CEL1    -0.150000       12.0110           0
      4003 MEMB     37       SAPS     H12R     HEL1     0.150000       1.00800           0
      4004 MEMB     37       SAPS     C213     CTL2    -0.180000       12.0110           0
      4005 MEMB     37       SAPS     H13R     HAL2     0.900000E-01   1.00800           0
      4006 MEMB     37       SAPS     H13S     HAL2     0.900000E-01   1.00800           0
      4007 MEMB     37       SAPS     C214     CEL1    -0.150000       12.0110           0
      4008 MEMB     37       SAPS     H14R     HEL1     0.150000       1.00800           0
      4009 MEMB     37       SAPS     C215     CEL1    -0.150000       12.0110           0
      4010 MEMB     37       SAPS     H15R     HEL1     0.150000       1.00800           0
      4011 MEMB     37       SAPS     C216     CTL2    -0.180000       12.0110           0
      4012 MEMB     37       SAPS     H16R     HAL2     0.900000E-01   1.00800           0
      4013 MEMB     37       SAPS     H16S     HAL2     0.900000E-01   1.00800           0
      4014 MEMB     37       SAPS     C217     CTL2    -0.180000       12.0110           0
      4015 MEMB     37       SAPS     H17R     HAL2     0.900000E-01   1.00800           0
      4016 MEMB     37       SAPS     H17S     HAL2     0.900000E-01   1.00800           0
      4017 MEMB     37       SAPS     C218     CTL2    -0.180000       12.0110           0
      4018 MEMB     37       SAPS     H18R     HAL2     0.900000E-01   1.00800           0
      4019 MEMB     37       SAPS     H18S     HAL2     0.900000E-01   1.00800           0
      4020 MEMB     37       SAPS     C219     CTL2    -0.180000       12.0110           0
      4021 MEMB     37       SAPS     H19R     HAL2     0.900000E-01   1.00800           0
      4022 MEMB     37       SAPS     H19S     HAL2     0.900000E-01   1.00800           0
      4023 MEMB     37       SAPS     C220     CTL3    -0.270000       12.0110           0
      4024 MEMB     37       SAPS     H20R     HAL3     0.900000E-01   1.00800           0
      4025 MEMB     37       SAPS     H20S     HAL3     0.900000E-01   1.00800           0
      4026 MEMB     37       SAPS     H20T     HAL3     0.900000E-01   1.00800           0
      4027 MEMB     37       SAPS     C33      CTL2    -0.180000       12.0110           0
      4028 MEMB     37       SAPS     H3X      HAL2     0.900000E-01   1.00800           0
      4029 MEMB     37       SAPS     H3Y      HAL2     0.900000E-01   1.00800           0
      4030 MEMB     37       SAPS     C34      CTL2    -0.180000       12.0110           0
      4031 MEMB     37       SAPS     H4X      HAL2     0.900000E-01   1.00800           0
      4032 MEMB     37       SAPS     H4Y      HAL2     0.900000E-01   1.00800           0
      4033 MEMB     37       SAPS     C35      CTL2    -0.180000       12.0110           0
      4034 MEMB     37       SAPS     H5X      HAL2     0.900000E-01   1.00800           0
      4035 MEMB     37       SAPS     H5Y      HAL2     0.900000E-01   1.00800           0
      4036 MEMB     37       SAPS     C36      CTL2    -0.180000       12.0110           0
      4037 MEMB     37       SAPS     H6X      HAL2     0.900000E-01   1.00800           0
      4038 MEMB     37       SAPS     H6Y      HAL2     0.900000E-01   1.00800           0
      4039 MEMB     37       SAPS     C37      CTL2    -0.180000       12.0110           0
      4040 MEMB     37       SAPS     H7X      HAL2     0.900000E-01   1.00800           0
      4041 MEMB     37       SAPS     H7Y      HAL2     0.900000E-01   1.00800           0
      4042 MEMB     37       SAPS     C38      CTL2    -0.180000       12.0110           0
      4043 MEMB     37       SAPS     H8X      HAL2     0.900000E-01   1.00800           0
      4044 MEMB     37       SAPS     H8Y      HAL2     0.900000E-01   1.00800           0
      4045 MEMB     37       SAPS     C39      CTL2    -0.180000       12.0110           0
      4046 MEMB     37       SAPS     H9X      HAL2     0.900000E-01   1.00800           0
      4047 MEMB     37       SAPS     H9Y      HAL2     0.900000E-01   1.00800           0
      4048 MEMB     37       SAPS     C310     CTL2    -0.180000       12.0110           0
      4049 MEMB     37       SAPS     H10X     HAL2     0.900000E-01   1.00800           0
      4050 MEMB     37       SAPS     H10Y     HAL2     0.900000E-01   1.00800           0
      4051 MEMB     37       SAPS     C311     CTL2    -0.180000       12.0110           0
      4052 MEMB     37       SAPS     H11X     HAL2     0.900000E-01   1.00800           0
      4053 MEMB     37       SAPS     H11Y     HAL2     0.900000E-01   1.00800           0
      4054 MEMB     37       SAPS     C312     CTL2    -0.180000       12.0110           0
      4055 MEMB     37       SAPS     H12X     HAL2     0.900000E-01   1.00800           0
      4056 MEMB     37       SAPS     H12Y     HAL2     0.900000E-01   1.00800           0
      4057 MEMB     37       SAPS     C313     CTL2    -0.180000       12.0110           0
      4058 MEMB     37       SAPS     H13X     HAL2     0.900000E-01   1.00800           0
      4059 MEMB     37       SAPS     H13Y     HAL2     0.900000E-01   1.00800           0
      4060 MEMB     37       SAPS     C314     CTL2    -0.180000       12.0110           0
      4061 MEMB     37       SAPS     H14X     HAL2     0.900000E-01   1.00800           0
      4062 MEMB     37       SAPS     H14Y     HAL2     0.900000E-01   1.00800           0
      4063 MEMB     37       SAPS     C315     CTL2    -0.180000       12.0110           0
      4064 MEMB     37       SAPS     H15X     HAL2     0.900000E-01   1.00800           0
      4065 MEMB     37       SAPS     H15Y     HAL2     0.900000E-01   1.00800           0
      4066 MEMB     37       SAPS     C316     CTL2    -0.180000       12.0110           0
      4067 MEMB     37       SAPS     H16X     HAL2     0.900000E-01   1.00800           0
      4068 MEMB     37       SAPS     H16Y     HAL2     0.900000E-01   1.00800           0
      4069 MEMB     37       SAPS     C317     CTL2    -0.180000       12.0110           0
      4070 MEMB     37       SAPS     H17X     HAL2     0.900000E-01   1.00800           0
      4071 MEMB     37       SAPS     H17Y     HAL2     0.900000E-01   1.00800           0
      4072 MEMB     37       SAPS     C318     CTL3    -0.270000       12.0110           0
      4073 MEMB     37       SAPS     H18X     HAL3     0.900000E-01   1.00800           0
      4074 MEMB     37       SAPS     H18Y     HAL3     0.900000E-01   1.00800           0
      4075 MEMB     37       SAPS     H18Z     HAL3     0.900000E-01   1.00800           0
      4076 MEMB     38       SAPE     N        NH3L    -0.300000       14.0070           0
      4077 MEMB     38       SAPE     HN1      HCL      0.330000       1.00800           0
      4078 MEMB     38       SAPE     HN2      HCL      0.330000       1.00800           0
      4079 MEMB     38       SAPE     HN3      HCL      0.330000       1.00800           0
      4080 MEMB     38       SAPE     C12      CTL2     0.130000       12.0110           0
      4081 MEMB     38       SAPE     H12A     HAL2     0.900000E-01   1.00800           0
      4082 MEMB     38       SAPE     H12B     HAL2     0.900000E-01   1.00800           0
      4083 MEMB     38       SAPE     C11      CTL2    -0.800000E-01   12.0110           0
      4084 MEMB     38       SAPE     H11A     HAL2     0.900000E-01   1.00800           0
      4085 MEMB     38       SAPE     H11B     HAL2     0.900000E-01   1.00800           0
      4086 MEMB     38       SAPE     P        PL        1.50000       30.9740           0
      4087 MEMB     38       SAPE     O13      O2L     -0.780000       15.9994           0
      4088 MEMB     38       SAPE     O14      O2L     -0.780000       15.9994           0
      4089 MEMB     38       SAPE     O12      OSLP    -0.570000       15.9994           0
      4090 MEMB     38       SAPE     O11      OSLP    -0.570000       15.9994           0
      4091 MEMB     38       SAPE     C1       CTL2    -0.800000E-01   12.0110           0
      4092 MEMB     38       SAPE     HA       HAL2     0.900000E-01   1.00800           0
      4093 MEMB     38       SAPE     HB       HAL2     0.900000E-01   1.00800           0
      4094 MEMB     38       SAPE     C2       CTL1     0.170000       12.0110           0
      4095 MEMB     38       SAPE     HS       HAL1     0.900000E-01   1.00800           0
      4096 MEMB     38       SAPE     O21      OSL     -0.490000       15.9994           0
      4097 MEMB     38       SAPE     C21      CL       0.900000       12.0110           0
      4098 MEMB     38       SAPE     O22      OBL     -0.630000       15.9994           0
      4099 MEMB     38       SAPE     C22      CTL2    -0.220000       12.0110           0
      4100 MEMB     38       SAPE     H2R      HAL2     0.900000E-01   1.00800           0
      4101 MEMB     38       SAPE     H2S      HAL2     0.900000E-01   1.00800           0
      4102 MEMB     38       SAPE     C3       CTL2     0.800000E-01   12.0110           0
      4103 MEMB     38       SAPE     HX       HAL2     0.900000E-01   1.00800           0
      4104 MEMB     38       SAPE     HY       HAL2     0.900000E-01   1.00800           0
      4105 MEMB     38       SAPE     O31      OSL     -0.490000       15.9994           0
      4106 MEMB     38       SAPE     C31      CL       0.900000       12.0110           0
      4107 MEMB     38       SAPE     O32      OBL     -0.630000       15.9994           0
      4108 MEMB     38       SAPE     C32      CTL2    -0.220000       12.0110           0
      4109 MEMB     38       SAPE     H2X      HAL2     0.900000E-01   1.00800           0
      4110 MEMB     38       SAPE     H2Y      HAL2     0.900000E-01   1.00800           0
      4111 MEMB     38       SAPE     C23      CTL2    -0.180000       12.0110           0
      4112 MEMB     38       SAPE     H3R      HAL2     0.900000E-01   1.00800           0
      4113 MEMB     38       SAPE     H3S      HAL2     0.900000E-01   1.00800           0
      4114 MEMB     38       SAPE     C24      CTL2    -0.180000       12.0110           0
      4115 MEMB     38       SAPE     H4R      HAL2     0.900000E-01   1.00800           0
      4116 MEMB     38       SAPE     H4S      HAL2     0.900000E-01   1.00800           0
      4117 MEMB     38       SAPE     C25      CEL1    -0.150000       12.0110           0
      4118 MEMB     38       SAPE     H5R      HEL1     0.150000       1.00800           0
      4119 MEMB     38       SAPE     C26      CEL1    -0.150000       12.0110           0
      4120 MEMB     38       SAPE     H6R      HEL1     0.150000       1.00800           0
      4121 MEMB     38       SAPE     C27      CTL2    -0.180000       12.0110           0
      4122 MEMB     38       SAPE     H7R      HAL2     0.900000E-01   1.00800           0
      4123 MEMB     38       SAPE     H7S      HAL2     0.900000E-01   1.00800           0
      4124 MEMB     38       SAPE     C28      CEL1    -0.150000       12.0110           0
      4125 MEMB     38       SAPE     H8R      HEL1     0.150000       1.00800           0
      4126 MEMB     38       SAPE     C29      CEL1    -0.150000       12.0110           0
      4127 MEMB     38       SAPE     H9R      HEL1     0.150000       1.00800           0
      4128 MEMB     38       SAPE     C210     CTL2    -0.180000       12.0110           0
      4129 MEMB     38       SAPE     H10R     HAL2     0.900000E-01   1.00800           0
      4130 MEMB     38       SAPE     H10S     HAL2     0.900000E-01   1.00800           0
      4131 MEMB     38       SAPE     C211     CEL1    -0.150000       12.0110           0
      4132 MEMB     38       SAPE     H11R     HEL1     0.150000       1.00800           0
      4133 MEMB     38       SAPE     C212     CEL1    -0.150000       12.0110           0
      4134 MEMB     38       SAPE     H12R     HEL1     0.150000       1.00800           0
      4135 MEMB     38       SAPE     C213     CTL2    -0.180000       12.0110           0
      4136 MEMB     38       SAPE     H13R     HAL2     0.900000E-01   1.00800           0
      4137 MEMB     38       SAPE     H13S     HAL2     0.900000E-01   1.00800           0
      4138 MEMB     38       SAPE     C214     CEL1    -0.150000       12.0110           0
      4139 MEMB     38       SAPE     H14R     HEL1     0.150000       1.00800           0
      4140 MEMB     38       SAPE     C215     CEL1    -0.150000       12.0110           0
      4141 MEMB     38       SAPE     H15R     HEL1     0.150000       1.00800           0
      4142 MEMB     38       SAPE     C216     CTL2    -0.180000       12.0110           0
      4143 MEMB     38       SAPE     H16R     HAL2     0.900000E-01   1.00800           0
      4144 MEMB     38       SAPE     H16S     HAL2     0.900000E-01   1.00800           0
      4145 MEMB     38       SAPE     C217     CTL2    -0.180000       12.0110           0
      4146 MEMB     38       SAPE     H17R     HAL2     0.900000E-01   1.00800           0
      4147 MEMB     38       SAPE     H17S     HAL2     0.900000E-01   1.00800           0
      4148 MEMB     38       SAPE     C218     CTL2    -0.180000       12.0110           0
      4149 MEMB     38       SAPE     H18R     HAL2     0.900000E-01   1.00800           0
      4150 MEMB     38       SAPE     H18S     HAL2     0.900000E-01   1.00800           0
      4151 MEMB     38       SAPE     C219     CTL2    -0.180000       12.0110           0
      4152 MEMB     38       SAPE     H19R     HAL2     0.900000E-01   1.00800           0
      4153 MEMB     38       SAPE     H19S     HAL2     0.900000E-01   1.00800           0
      4154 MEMB     38       SAPE     C220     CTL3    -0.270000       12.0110           0
      4155 MEMB     38       SAPE     H20R     HAL3     0.900000E-01   1.00800           0
      4156 MEMB     38       SAPE     H20S     HAL3     0.900000E-01   1.00800           0
      4157 MEMB     38       SAPE     H20T     HAL3     0.900000E-01   1.00800           0
      4158 MEMB     38       SAPE     C33      CTL2    -0.180000       12.0110           0
      4159 MEMB     38       SAPE     H3X      HAL2     0.900000E-01   1.00800           0
      4160 MEMB     38       SAPE     H3Y      HAL2     0.900000E-01   1.00800           0
      4161 MEMB     38       SAPE     C34      CTL2    -0.180000       12.0110           0
      4162 MEMB     38       SAPE     H4X      HAL2     0.900000E-01   1.00800           0
      4163 MEMB     38       SAPE     H4Y      HAL2     0.900000E-01   1.00800           0
      4164 MEMB     38       SAPE     C35      CTL2    -0.180000       12.0110           0
      4165 MEMB     38       SAPE     H5X      HAL2     0.900000E-01   1.00800           0
      4166 MEMB     38       SAPE     H5Y      HAL2     0.900000E-01   1.00800           0
      4167 MEMB     38       SAPE     C36      CTL2    -0.180000       12.0110           0
      4168 MEMB     38       SAPE     H6X      HAL2     0.900000E-01   1.00800           0
      4169 MEMB     38       SAPE     H6Y      HAL2     0.900000E-01   1.00800           0
      4170 MEMB     38       SAPE     C37      CTL2    -0.180000       12.0110           0
      4171 MEMB     38       SAPE     H7X      HAL2     0.900000E-01   1.00800           0
      4172 MEMB     38       SAPE     H7Y      HAL2     0.900000E-01   1.00800           0
      4173 MEMB     38       SAPE     C38      CTL2    -0.180000       12.0110           0
      4174 MEMB     38       SAPE     H8X      HAL2     0.900000E-01   1.00800           0
      4175 MEMB     38       SAPE     H8Y      HAL2     0.900000E-01   1.00800           0
      4176 MEMB     38       SAPE     C39      CTL2    -0.180000       12.0110           0
      4177 MEMB     38       SAPE     H9X      HAL2     0.900000E-01   1.00800           0
      4178 MEMB     38       SAPE     H9Y      HAL2     0.900000E-01   1.00800           0
      4179 MEMB     38       SAPE     C310     CTL2    -0.180000       12.0110           0
      4180 MEMB     38       SAPE     H10X     HAL2     0.900000E-01   1.00800           0
      4181 MEMB     38       SAPE     H10Y     HAL2     0.900000E-01   1.00800           0
      4182 MEMB     38       SAPE     C311     CTL2    -0.180000       12.0110           0
      4183 MEMB     38       SAPE     H11X     HAL2     0.900000E-01   1.00800           0
      4184 MEMB     38       SAPE     H11Y     HAL2     0.900000E-01   1.00800           0
      4185 MEMB     38       SAPE     C312     CTL2    -0.180000       12.0110           0
      4186 MEMB     38       SAPE     H12X     HAL2     0.900000E-01   1.00800           0
      4187 MEMB     38       SAPE     H12Y     HAL2     0.900000E-01   1.00800           0
      4188 MEMB     38       SAPE     C313     CTL2    -0.180000       12.0110           0
      4189 MEMB     38       SAPE     H13X     HAL2     0.900000E-01   1.00800           0
      4190 MEMB     38       SAPE     H13Y     HAL2     0.900000E-01   1.00800           0
      4191 MEMB     38       SAPE     C314     CTL2    -0.180000       12.0110           0
      4192 MEMB     38       SAPE     H14X     HAL2     0.900000E-01   1.00800           0
      4193 MEMB     38       SAPE     H14Y     HAL2     0.900000E-01   1.00800           0
      4194 MEMB     38       SAPE     C315     CTL2    -0.180000       12.0110           0
      4195 MEMB     38       SAPE     H15X     HAL2     0.900000E-01   1.00800           0
      4196 MEMB     38       SAPE     H15Y     HAL2     0.900000E-01   1.00800           0
      4197 MEMB     38       SAPE     C316     CTL2    -0.180000       12.0110           0
      4198 MEMB     38       SAPE     H16X     HAL2     0.900000E-01   1.00800           0
      4199 MEMB     38       SAPE     H16Y     HAL2     0.900000E-01   1.00800           0
      4200 MEMB     38       SAPE     C317     CTL2    -0.180000       12.0110           0
      4201 MEMB     38       SAPE     H17X     HAL2     0.900000E-01   1.00800           0
      4202 MEMB     38       SAPE     H17Y     HAL2     0.900000E-01   1.00800           0
      4203 MEMB     38       SAPE     C318     CTL3    -0.270000       12.0110           0
      4204 MEMB     38       SAPE     H18X     HAL3     0.900000E-01   1.00800           0
      4205 MEMB     38       SAPE     H18Y     HAL3     0.900000E-01   1.00800           0
      4206 MEMB     38       SAPE     H18Z     HAL3     0.900000E-01   1.00800           0
      4207 MEMB     39       POPC     N        NTL     -0.600000       14.0070           0
      4208 MEMB     39       POPC     C12      CTL2    -0.100000       12.0110           0
      4209 MEMB     39       POPC     H12A     HL       0.250000       1.00800           0
      4210 MEMB     39       POPC     H12B     HL       0.250000       1.00800           0
      4211 MEMB     39       POPC     C13      CTL5    -0.350000       12.0110           0
      4212 MEMB     39       POPC     H13A     HL       0.250000       1.00800           0
      4213 MEMB     39       POPC     H13B     HL       0.250000       1.00800           0
      4214 MEMB     39       POPC     H13C     HL       0.250000       1.00800           0
      4215 MEMB     39       POPC     C14      CTL5    -0.350000       12.0110           0
      4216 MEMB     39       POPC     H14A     HL       0.250000       1.00800           0
      4217 MEMB     39       POPC     H14B     HL       0.250000       1.00800           0
      4218 MEMB     39       POPC     H14C     HL       0.250000       1.00800           0
      4219 MEMB     39       POPC     C15      CTL5    -0.350000       12.0110           0
      4220 MEMB     39       POPC     H15A     HL       0.250000       1.00800           0
      4221 MEMB     39       POPC     H15B     HL       0.250000       1.00800           0
      4222 MEMB     39       POPC     H15C     HL       0.250000       1.00800           0
      4223 MEMB     39       POPC     C11      CTL2    -0.800000E-01   12.0110           0
      4224 MEMB     39       POPC     H11A     HAL2     0.900000E-01   1.00800           0
      4225 MEMB     39       POPC     H11B     HAL2     0.900000E-01   1.00800           0
      4226 MEMB     39       POPC     P        PL        1.50000       30.9740           0
      4227 MEMB     39       POPC     O13      O2L     -0.780000       15.9994           0
      4228 MEMB     39       POPC     O14      O2L     -0.780000       15.9994           0
      4229 MEMB     39       POPC     O12      OSLP    -0.570000       15.9994           0
      4230 MEMB     39       POPC     O11      OSLP    -0.570000       15.9994           0
      4231 MEMB     39       POPC     C1       CTL2    -0.800000E-01   12.0110           0
      4232 MEMB     39       POPC     HA       HAL2     0.900000E-01   1.00800           0
      4233 MEMB     39       POPC     HB       HAL2     0.900000E-01   1.00800           0
      4234 MEMB     39       POPC     C2       CTL1     0.170000       12.0110           0
      4235 MEMB     39       POPC     HS       HAL1     0.900000E-01   1.00800           0
      4236 MEMB     39       POPC     O21      OSL     -0.490000       15.9994           0
      4237 MEMB     39       POPC     C21      CL       0.900000       12.0110           0
      4238 MEMB     39       POPC     O22      OBL     -0.630000       15.9994           0
      4239 MEMB     39       POPC     C22      CTL2    -0.220000       12.0110           0
      4240 MEMB     39       POPC     H2R      HAL2     0.900000E-01   1.00800           0
      4241 MEMB     39       POPC     H2S      HAL2     0.900000E-01   1.00800           0
      4242 MEMB     39       POPC     C3       CTL2     0.800000E-01   12.0110           0
      4243 MEMB     39       POPC     HX       HAL2     0.900000E-01   1.00800           0
      4244 MEMB     39       POPC     HY       HAL2     0.900000E-01   1.00800           0
      4245 MEMB     39       POPC     O31      OSL     -0.490000       15.9994           0
      4246 MEMB     39       POPC     C31      CL       0.900000       12.0110           0
      4247 MEMB     39       POPC     O32      OBL     -0.630000       15.9994           0
      4248 MEMB     39       POPC     C32      CTL2    -0.220000       12.0110           0
      4249 MEMB     39       POPC     H2X      HAL2     0.900000E-01   1.00800           0
      4250 MEMB     39       POPC     H2Y      HAL2     0.900000E-01   1.00800           0
      4251 MEMB     39       POPC     C23      CTL2    -0.180000       12.0110           0
      4252 MEMB     39       POPC     H3R      HAL2     0.900000E-01   1.00800           0
      4253 MEMB     39       POPC     H3S      HAL2     0.900000E-01   1.00800           0
      4254 MEMB     39       POPC     C24      CTL2    -0.180000       12.0110           0
      4255 MEMB     39       POPC     H4R      HAL2     0.900000E-01   1.00800           0
      4256 MEMB     39       POPC     H4S      HAL2     0.900000E-01   1.00800           0
      4257 MEMB     39       POPC     C25      CTL2    -0.180000       12.0110           0
      4258 MEMB     39       POPC     H5R      HAL2     0.900000E-01   1.00800           0
      4259 MEMB     39       POPC     H5S      HAL2     0.900000E-01   1.00800           0
      4260 MEMB     39       POPC     C26      CTL2    -0.180000       12.0110           0
      4261 MEMB     39       POPC     H6R      HAL2     0.900000E-01   1.00800           0
      4262 MEMB     39       POPC     H6S      HAL2     0.900000E-01   1.00800           0
      4263 MEMB     39       POPC     C27      CTL2    -0.180000       12.0110           0
      4264 MEMB     39       POPC     H7R      HAL2     0.900000E-01   1.00800           0
      4265 MEMB     39       POPC     H7S      HAL2     0.900000E-01   1.00800           0
      4266 MEMB     39       POPC     C28      CTL2    -0.180000       12.0110           0
      4267 MEMB     39       POPC     H8R      HAL2     0.900000E-01   1.00800           0
      4268 MEMB     39       POPC     H8S      HAL2     0.900000E-01   1.00800           0
      4269 MEMB     39       POPC     C29      CEL1    -0.150000       12.0110           0
      4270 MEMB     39       POPC     H91      HEL1     0.150000       1.00800           0
      4271 MEMB     39       POPC     C210     CEL1    -0.150000       12.0110           0
      4272 MEMB     39       POPC     H101     HEL1     0.150000       1.00800           0
      4273 MEMB     39       POPC     C211     CTL2    -0.180000       12.0110           0
      4274 MEMB     39       POPC     H11R     HAL2     0.900000E-01   1.00800           0
      4275 MEMB     39       POPC     H11S     HAL2     0.900000E-01   1.00800           0
      4276 MEMB     39       POPC     C212     CTL2    -0.180000       12.0110           0
      4277 MEMB     39       POPC     H12R     HAL2     0.900000E-01   1.00800           0
      4278 MEMB     39       POPC     H12S     HAL2     0.900000E-01   1.00800           0
      4279 MEMB     39       POPC     C213     CTL2    -0.180000       12.0110           0
      4280 MEMB     39       POPC     H13R     HAL2     0.900000E-01   1.00800           0
      4281 MEMB     39       POPC     H13S     HAL2     0.900000E-01   1.00800           0
      4282 MEMB     39       POPC     C214     CTL2    -0.180000       12.0110           0
      4283 MEMB     39       POPC     H14R     HAL2     0.900000E-01   1.00800           0
      4284 MEMB     39       POPC     H14S     HAL2     0.900000E-01   1.00800           0
      4285 MEMB     39       POPC     C215     CTL2    -0.180000       12.0110           0
      4286 MEMB     39       POPC     H15R     HAL2     0.900000E-01   1.00800           0
      4287 MEMB     39       POPC     H15S     HAL2     0.900000E-01   1.00800           0
      4288 MEMB     39       POPC     C216     CTL2    -0.180000       12.0110           0
      4289 MEMB     39       POPC     H16R     HAL2     0.900000E-01   1.00800           0
      4290 MEMB     39       POPC     H16S     HAL2     0.900000E-01   1.00800           0
      4291 MEMB     39       POPC     C217     CTL2    -0.180000       12.0110           0
      4292 MEMB     39       POPC     H17R     HAL2     0.900000E-01   1.00800           0
      4293 MEMB     39       POPC     H17S     HAL2     0.900000E-01   1.00800           0
      4294 MEMB     39       POPC     C218     CTL3    -0.270000       12.0110           0
      4295 MEMB     39       POPC     H18R     HAL3     0.900000E-01   1.00800           0
      4296 MEMB     39       POPC     H18S     HAL3     0.900000E-01   1.00800           0
      4297 MEMB     39       POPC     H18T     HAL3     0.900000E-01   1.00800           0
      4298 MEMB     39       POPC     C33      CTL2    -0.180000       12.0110           0
      4299 MEMB     39       POPC     H3X      HAL2     0.900000E-01   1.00800           0
      4300 MEMB     39       POPC     H3Y      HAL2     0.900000E-01   1.00800           0
      4301 MEMB     39       POPC     C34      CTL2    -0.180000       12.0110           0
      4302 MEMB     39       POPC     H4X      HAL2     0.900000E-01   1.00800           0
      4303 MEMB     39       POPC     H4Y      HAL2     0.900000E-01   1.00800           0
      4304 MEMB     39       POPC     C35      CTL2    -0.180000       12.0110           0
      4305 MEMB     39       POPC     H5X      HAL2     0.900000E-01   1.00800           0
      4306 MEMB     39       POPC     H5Y      HAL2     0.900000E-01   1.00800           0
      4307 MEMB     39       POPC     C36      CTL2    -0.180000       12.0110           0
      4308 MEMB     39       POPC     H6X      HAL2     0.900000E-01   1.00800           0
      4309 MEMB     39       POPC     H6Y      HAL2     0.900000E-01   1.00800           0
      4310 MEMB     39       POPC     C37      CTL2    -0.180000       12.0110           0
      4311 MEMB     39       POPC     H7X      HAL2     0.900000E-01   1.00800           0
      4312 MEMB     39       POPC     H7Y      HAL2     0.900000E-01   1.00800           0
      4313 MEMB     39       POPC     C38      CTL2    -0.180000       12.0110           0
      4314 MEMB     39       POPC     H8X      HAL2     0.900000E-01   1.00800           0
      4315 MEMB     39       POPC     H8Y      HAL2     0.900000E-01   1.00800           0
      4316 MEMB     39       POPC     C39      CTL2    -0.180000       12.0110           0
      4317 MEMB     39       POPC     H9X      HAL2     0.900000E-01   1.00800           0
      4318 MEMB     39       POPC     H9Y      HAL2     0.900000E-01   1.00800           0
      4319 MEMB     39       POPC     C310     CTL2    -0.180000       12.0110           0
      4320 MEMB     39       POPC     H10X     HAL2     0.900000E-01   1.00800           0
      4321 MEMB     39       POPC     H10Y     HAL2     0.900000E-01   1.00800           0
      4322 MEMB     39       POPC     C311     CTL2    -0.180000       12.0110           0
      4323 MEMB     39       POPC     H11X     HAL2     0.900000E-01   1.00800           0
      4324 MEMB     39       POPC     H11Y     HAL2     0.900000E-01   1.00800           0
      4325 MEMB     39       POPC     C312     CTL2    -0.180000       12.0110           0
      4326 MEMB     39       POPC     H12X     HAL2     0.900000E-01   1.00800           0
      4327 MEMB     39       POPC     H12Y     HAL2     0.900000E-01   1.00800           0
      4328 MEMB     39       POPC     C313     CTL2    -0.180000       12.0110           0
      4329 MEMB     39       POPC     H13X     HAL2     0.900000E-01   1.00800           0
      4330 MEMB     39       POPC     H13Y     HAL2     0.900000E-01   1.00800           0
      4331 MEMB     39       POPC     C314     CTL2    -0.180000       12.0110           0
      4332 MEMB     39       POPC     H14X     HAL2     0.900000E-01   1.00800           0
      4333 MEMB     39       POPC     H14Y     HAL2     0.900000E-01   1.00800           0
      4334 MEMB     39       POPC     C315     CTL2    -0.180000       12.0110           0
      4335 MEMB     39       POPC     H15X     HAL2     0.900000E-01   1.00800           0
      4336 MEMB     39       POPC     H15Y     HAL2     0.900000E-01   1.00800           0
      4337 MEMB     39       POPC     C316     CTL3    -0.270000       12.0110           0
      4338 MEMB     39       POPC     H16X     HAL3     0.900000E-01   1.00800           0
      4339 MEMB     39       POPC     H16Y     HAL3     0.900000E-01   1.00800           0
      4340 MEMB     39       POPC     H16Z     HAL3     0.900000E-01   1.00800           0
      4341 MEMB     40       CHL1     C3       CRL1     0.140000       12.0110           0
      4342 MEMB     40       CHL1     H3       HGA1     0.900000E-01   1.00800           0
      4343 MEMB     40       CHL1     O3       OHL     -0.660000       15.9994           0
      4344 MEMB     40       CHL1     H3'      HOL      0.430000       1.00800           0
      4345 MEMB     40       CHL1     C4       CRL2    -0.180000       12.0110           0
      4346 MEMB     40       CHL1     H4A      HGA2     0.900000E-01   1.00800           0
      4347 MEMB     40       CHL1     H4B      HGA2     0.900000E-01   1.00800           0
      4348 MEMB     40       CHL1     C5       CEL1      0.00000       12.0110           0
      4349 MEMB     40       CHL1     C6       CEL1    -0.150000       12.0110           0
      4350 MEMB     40       CHL1     H6       HEL1     0.150000       1.00800           0
      4351 MEMB     40       CHL1     C7       CRL2    -0.180000       12.0110           0
      4352 MEMB     40       CHL1     H7A      HGA2     0.900000E-01   1.00800           0
      4353 MEMB     40       CHL1     H7B      HGA2     0.900000E-01   1.00800           0
      4354 MEMB     40       CHL1     C8       CRL1    -0.900000E-01   12.0110           0
      4355 MEMB     40       CHL1     H8       HGA1     0.900000E-01   1.00800           0
      4356 MEMB     40       CHL1     C14      CRL1    -0.900000E-01   12.0110           0
      4357 MEMB     40       CHL1     H14      HGA1     0.900000E-01   1.00800           0
      4358 MEMB     40       CHL1     C15      CRL2    -0.180000       12.0110           0
      4359 MEMB     40       CHL1     H15A     HGA2     0.900000E-01   1.00800           0
      4360 MEMB     40       CHL1     H15B     HGA2     0.900000E-01   1.00800           0
      4361 MEMB     40       CHL1     C16      CRL2    -0.180000       12.0110           0
      4362 MEMB     40       CHL1     H16A     HGA2     0.900000E-01   1.00800           0
      4363 MEMB     40       CHL1     H16B     HGA2     0.900000E-01   1.00800           0
      4364 MEMB     40       CHL1     C17      CRL1    -0.900000E-01   12.0110           0
      4365 MEMB     40       CHL1     H17      HGA1     0.900000E-01   1.00800           0
      4366 MEMB     40       CHL1     C13      CRL1      0.00000       12.0110           0
      4367 MEMB     40       CHL1     C18      CTL3    -0.270000       12.0110           0
      4368 MEMB     40       CHL1     H18A     HAL3     0.900000E-01   1.00800           0
      4369 MEMB     40       CHL1     H18B     HAL3     0.900000E-01   1.00800           0
      4370 MEMB     40       CHL1     H18C     HAL3     0.900000E-01   1.00800           0
      4371 MEMB     40       CHL1     C12      CRL2    -0.180000       12.0110           0
      4372 MEMB     40       CHL1     H12A     HGA2     0.900000E-01   1.00800           0
      4373 MEMB     40       CHL1     H12B     HGA2     0.900000E-01   1.00800           0
      4374 MEMB     40       CHL1     C11      CRL2    -0.180000       12.0110           0
      4375 MEMB     40       CHL1     H11A     HGA2     0.900000E-01   1.00800           0
      4376 MEMB     40       CHL1     H11B     HGA2     0.900000E-01   1.00800           0
      4377 MEMB     40       CHL1     C9       CRL1    -0.900000E-01   12.0110           0
      4378 MEMB     40       CHL1     H9       HGA1     0.900000E-01   1.00800           0
      4379 MEMB     40       CHL1     C10      CRL1      0.00000       12.0110           0
      4380 MEMB     40       CHL1     C19      CTL3    -0.270000       12.0110           0
      4381 MEMB     40       CHL1     H19A     HAL3     0.900000E-01   1.00800           0
      4382 MEMB     40       CHL1     H19B     HAL3     0.900000E-01   1.00800           0
      4383 MEMB     40       CHL1     H19C     HAL3     0.900000E-01   1.00800           0
      4384 MEMB     40       CHL1     C1       CRL2    -0.180000       12.0110           0
      4385 MEMB     40       CHL1     H1A      HGA2     0.900000E-01   1.00800           0
      4386 MEMB     40       CHL1     H1B      HGA2     0.900000E-01   1.00800           0
      4387 MEMB     40       CHL1     C2       CRL2    -0.180000       12.0110           0
      4388 MEMB     40       CHL1     H2A      HGA2     0.900000E-01   1.00800           0
      4389 MEMB     40       CHL1     H2B      HGA2     0.900000E-01   1.00800           0
      4390 MEMB     40       CHL1     C20      CTL1    -0.900000E-01   12.0110           0
      4391 MEMB     40       CHL1     H20      HAL1     0.900000E-01   1.00800           0
      4392 MEMB     40       CHL1     C21      CTL3    -0.270000       12.0110           0
      4393 MEMB     40       CHL1     H21A     HAL3     0.900000E-01   1.00800           0
      4394 MEMB     40       CHL1     H21B     HAL3     0.900000E-01   1.00800           0
      4395 MEMB     40       CHL1     H21C     HAL3     0.900000E-01   1.00800           0
      4396 MEMB     40       CHL1     C22      CTL2    -0.180000       12.0110           0
      4397 MEMB     40       CHL1     H22A     HAL2     0.900000E-01   1.00800           0
      4398 MEMB     40       CHL1     H22B     HAL2     0.900000E-01   1.00800           0
      4399 MEMB     40       CHL1     C23      CTL2    -0.180000       12.0110           0
      4400 MEMB     40       CHL1     H23A     HAL2     0.900000E-01   1.00800           0
      4401 MEMB     40       CHL1     H23B     HAL2     0.900000E-01   1.00800           0
      4402 MEMB     40       CHL1     C24      CTL2    -0.180000       12.0110           0
      4403 MEMB     40       CHL1     H24A     HAL2     0.900000E-01   1.00800           0
      4404 MEMB     40       CHL1     H24B     HAL2     0.900000E-01   1.00800           0
      4405 MEMB     40       CHL1     C25      CTL1    -0.900000E-01   12.0110           0
      4406 MEMB     40       CHL1     H25      HAL1     0.900000E-01   1.00800           0
      4407 MEMB     40       CHL1     C26      CTL3    -0.270000       12.0110           0
      4408 MEMB     40       CHL1     H26A     HAL3     0.900000E-01   1.00800           0
      4409 MEMB     40       CHL1     H26B     HAL3     0.900000E-01   1.00800           0
      4410 MEMB     40       CHL1     H26C     HAL3     0.900000E-01   1.00800           0
      4411 MEMB     40       CHL1     C27      CTL3    -0.270000       12.0110           0
      4412 MEMB     40       CHL1     H27A     HAL3     0.900000E-01   1.00800           0
      4413 MEMB     40       CHL1     H27B     HAL3     0.900000E-01   1.00800           0
      4414 MEMB     40       CHL1     H27C     HAL3     0.900000E-01   1.00800           0
      4415 MEMB     41       OSM      N        NTL     -0.600000       14.0070           0
      4416 MEMB     41       OSM      C15      CTL5    -0.350000       12.0110           0
      4417 MEMB     41       OSM      H15A     HL       0.250000       1.00800           0
      4418 MEMB     41       OSM      H15B     HL       0.250000       1.00800           0
      4419 MEMB     41       OSM      H15C     HL       0.250000       1.00800           0
      4420 MEMB     41       OSM      C14      CTL5    -0.350000       12.0110           0
      4421 MEMB     41       OSM      H14A     HL       0.250000       1.00800           0
      4422 MEMB     41       OSM      H14B     HL       0.250000       1.00800           0
      4423 MEMB     41       OSM      H14C     HL       0.250000       1.00800           0
      4424 MEMB     41       OSM      C13      CTL5    -0.350000       12.0110           0
      4425 MEMB     41       OSM      H13A     HL       0.250000       1.00800           0
      4426 MEMB     41       OSM      H13B     HL       0.250000       1.00800           0
      4427 MEMB     41       OSM      H13C     HL       0.250000       1.00800           0
      4428 MEMB     41       OSM      C12      CTL2    -0.100000       12.0110           0
      4429 MEMB     41       OSM      H12A     HL       0.250000       1.00800           0
      4430 MEMB     41       OSM      H12B     HL       0.250000       1.00800           0
      4431 MEMB     41       OSM      C11      CTL2    -0.800000E-01   12.0110           0
      4432 MEMB     41       OSM      H11A     HAL2     0.900000E-01   1.00800           0
      4433 MEMB     41       OSM      H11B     HAL2     0.900000E-01   1.00800           0
      4434 MEMB     41       OSM      P        PL        1.50000       30.9740           0
      4435 MEMB     41       OSM      O13      O2L     -0.780000       15.9994           0
      4436 MEMB     41       OSM      O14      O2L     -0.780000       15.9994           0
      4437 MEMB     41       OSM      O11      OSLP    -0.570000       15.9994           0
      4438 MEMB     41       OSM      O12      OSLP    -0.570000       15.9994           0
      4439 MEMB     41       OSM      C1S      CTL2    -0.800000E-01   12.0110           0
      4440 MEMB     41       OSM      H1S      HAL2     0.900000E-01   1.00800           0
      4441 MEMB     41       OSM      H1T      HAL2     0.900000E-01   1.00800           0
      4442 MEMB     41       OSM      NF       NHL     -0.700000       14.0070           0
      4443 MEMB     41       OSM      HNF      H        0.350000       1.00800           0
      4444 MEMB     41       OSM      C2S      CTL1     0.300000       12.0110           0
      4445 MEMB     41       OSM      H2S      HAL1     0.500000E-01   1.00800           0
      4446 MEMB     41       OSM      C3S      CTO1     0.500000       12.0110           0
      4447 MEMB     41       OSM      H3S      HAL1    -0.110000       1.00800           0
      4448 MEMB     41       OSM      O3       OHL     -0.690000       15.9994           0
      4449 MEMB     41       OSM      HO3      HOL      0.300000       1.00800           0
      4450 MEMB     41       OSM      C4S      CEL3    -0.150000       12.0110           0
      4451 MEMB     41       OSM      H4S      HEL1     0.150000       1.00800           0
      4452 MEMB     41       OSM      C5S      CEL3    -0.150000       12.0110           0
      4453 MEMB     41       OSM      H5S      HEL1     0.150000       1.00800           0
      4454 MEMB     41       OSM      C6S      CTL2    -0.180000       12.0110           0
      4455 MEMB     41       OSM      H6S      HAL2     0.900000E-01   1.00800           0
      4456 MEMB     41       OSM      H6T      HAL2     0.900000E-01   1.00800           0
      4457 MEMB     41       OSM      C7S      CTL2    -0.180000       12.0110           0
      4458 MEMB     41       OSM      H7S      HAL2     0.900000E-01   1.00800           0
      4459 MEMB     41       OSM      H7T      HAL2     0.900000E-01   1.00800           0
      4460 MEMB     41       OSM      C8S      CTL2    -0.180000       12.0110           0
      4461 MEMB     41       OSM      H8S      HAL2     0.900000E-01   1.00800           0
      4462 MEMB     41       OSM      H8T      HAL2     0.900000E-01   1.00800           0
      4463 MEMB     41       OSM      C9S      CTL2    -0.180000       12.0110           0
      4464 MEMB     41       OSM      H9S      HAL2     0.900000E-01   1.00800           0
      4465 MEMB     41       OSM      H9T      HAL2     0.900000E-01   1.00800           0
      4466 MEMB     41       OSM      C10S     CTL2    -0.180000       12.0110           0
      4467 MEMB     41       OSM      H10S     HAL2     0.900000E-01   1.00800           0
      4468 MEMB     41       OSM      H10T     HAL2     0.900000E-01   1.00800           0
      4469 MEMB     41       OSM      C11S     CTL2    -0.180000       12.0110           0
      4470 MEMB     41       OSM      H11S     HAL2     0.900000E-01   1.00800           0
      4471 MEMB     41       OSM      H11T     HAL2     0.900000E-01   1.00800           0
      4472 MEMB     41       OSM      C12S     CTL2    -0.180000       12.0110           0
      4473 MEMB     41       OSM      H12S     HAL2     0.900000E-01   1.00800           0
      4474 MEMB     41       OSM      H12T     HAL2     0.900000E-01   1.00800           0
      4475 MEMB     41       OSM      C13S     CTL2    -0.180000       12.0110           0
      4476 MEMB     41       OSM      H13S     HAL2     0.900000E-01   1.00800           0
      4477 MEMB     41       OSM      H13T     HAL2     0.900000E-01   1.00800           0
      4478 MEMB     41       OSM      C14S     CTL2    -0.180000       12.0110           0
      4479 MEMB     41       OSM      H14S     HAL2     0.900000E-01   1.00800           0
      4480 MEMB     41       OSM      H14T     HAL2     0.900000E-01   1.00800           0
      4481 MEMB     41       OSM      C15S     CTL2    -0.180000       12.0110           0
      4482 MEMB     41       OSM      H15S     HAL2     0.900000E-01   1.00800           0
      4483 MEMB     41       OSM      H15T     HAL2     0.900000E-01   1.00800           0
      4484 MEMB     41       OSM      C16S     CTL2    -0.180000       12.0110           0
      4485 MEMB     41       OSM      H16S     HAL2     0.900000E-01   1.00800           0
      4486 MEMB     41       OSM      H16T     HAL2     0.900000E-01   1.00800           0
      4487 MEMB     41       OSM      C17S     CTL2    -0.180000       12.0110           0
      4488 MEMB     41       OSM      H17S     HAL2     0.900000E-01   1.00800           0
      4489 MEMB     41       OSM      H17T     HAL2     0.900000E-01   1.00800           0
      4490 MEMB     41       OSM      C18S     CTL3    -0.270000       12.0110           0
      4491 MEMB     41       OSM      H18S     HAL3     0.900000E-01   1.00800           0
      4492 MEMB     41       OSM      H18T     HAL3     0.900000E-01   1.00800           0
      4493 MEMB     41       OSM      H18U     HAL3     0.900000E-01   1.00800           0
      4494 MEMB     41       OSM      C1F      C        0.550000       12.0110           0
      4495 MEMB     41       OSM      OF       O       -0.600000       15.9994           0
      4496 MEMB     41       OSM      C2F      CTL2    -0.700000E-01   12.0110           0
      4497 MEMB     41       OSM      H2F      HAL2     0.600000E-01   1.00800           0
      4498 MEMB     41       OSM      H2G      HAL2     0.600000E-01   1.00800           0
      4499 MEMB     41       OSM      C3F      CTL2    -0.180000       12.0110           0
      4500 MEMB     41       OSM      H3F      HAL2     0.900000E-01   1.00800           0
      4501 MEMB     41       OSM      H3G      HAL2     0.900000E-01   1.00800           0
      4502 MEMB     41       OSM      C4F      CTL2    -0.180000       12.0110           0
      4503 MEMB     41       OSM      H4F      HAL2     0.900000E-01   1.00800           0
      4504 MEMB     41       OSM      H4G      HAL2     0.900000E-01   1.00800           0
      4505 MEMB     41       OSM      C5F      CTL2    -0.180000       12.0110           0
      4506 MEMB     41       OSM      H5F      HAL2     0.900000E-01   1.00800           0
      4507 MEMB     41       OSM      H5G      HAL2     0.900000E-01   1.00800           0
      4508 MEMB     41       OSM      C6F      CTL2    -0.180000       12.0110           0
      4509 MEMB     41       OSM      H6F      HAL2     0.900000E-01   1.00800           0
      4510 MEMB     41       OSM      H6G      HAL2     0.900000E-01   1.00800           0
      4511 MEMB     41       OSM      C7F      CTL2    -0.180000       12.0110           0
      4512 MEMB     41       OSM      H7F      HAL2     0.900000E-01   1.00800           0
      4513 MEMB     41       OSM      H7G      HAL2     0.900000E-01   1.00800           0
      4514 MEMB     41       OSM      C8F      CTL2    -0.180000       12.0110           0
      4515 MEMB     41       OSM      H8F      HAL2     0.900000E-01   1.00800           0
      4516 MEMB     41       OSM      H8G      HAL2     0.900000E-01   1.00800           0
      4517 MEMB     41       OSM      C9F      CEL1    -0.150000       12.0110           0
      4518 MEMB     41       OSM      H9F      HEL1     0.150000       1.00800           0
      4519 MEMB     41       OSM      C10F     CEL1    -0.150000       12.0110           0
      4520 MEMB     41       OSM      H10F     HEL1     0.150000       1.00800           0
      4521 MEMB     41       OSM      C11F     CTL2    -0.180000       12.0110           0
      4522 MEMB     41       OSM      H11F     HAL2     0.900000E-01   1.00800           0
      4523 MEMB     41       OSM      H11G     HAL2     0.900000E-01   1.00800           0
      4524 MEMB     41       OSM      C12F     CTL2    -0.180000       12.0110           0
      4525 MEMB     41       OSM      H12F     HAL2     0.900000E-01   1.00800           0
      4526 MEMB     41       OSM      H12G     HAL2     0.900000E-01   1.00800           0
      4527 MEMB     41       OSM      C13F     CTL2    -0.180000       12.0110           0
      4528 MEMB     41       OSM      H13F     HAL2     0.900000E-01   1.00800           0
      4529 MEMB     41       OSM      H13G     HAL2     0.900000E-01   1.00800           0
      4530 MEMB     41       OSM      C14F     CTL2    -0.180000       12.0110           0
      4531 MEMB     41       OSM      H14F     HAL2     0.900000E-01   1.00800           0
      4532 MEMB     41       OSM      H14G     HAL2     0.900000E-01   1.00800           0
      4533 MEMB     41       OSM      C15F     CTL2    -0.180000       12.0110           0
      4534 MEMB     41       OSM      H15F     HAL2     0.900000E-01   1.00800           0
      4535 MEMB     41       OSM      H15G     HAL2     0.900000E-01   1.00800           0
      4536 MEMB     41       OSM      C16F     CTL2    -0.180000       12.0110           0
      4537 MEMB     41       OSM      H16F     HAL2     0.900000E-01   1.00800           0
      4538 MEMB     41       OSM      H16G     HAL2     0.900000E-01   1.00800           0
      4539 MEMB     41       OSM      C17F     CTL2    -0.180000       12.0110           0
      4540 MEMB     41       OSM      H17F     HAL2     0.900000E-01   1.00800           0
      4541 MEMB     41       OSM      H17G     HAL2     0.900000E-01   1.00800           0
      4542 MEMB     41       OSM      C18F     CTL3    -0.270000       12.0110           0
      4543 MEMB     41       OSM      H18F     HAL3     0.900000E-01   1.00800           0
      4544 MEMB     41       OSM      H18G     HAL3     0.900000E-01   1.00800           0
      4545 MEMB     41       OSM      H18H     HAL3     0.900000E-01   1.00800           0
      4546 MEMB     42       OSM      N        NTL     -0.600000       14.0070           0
      4547 MEMB     42       OSM      C15      CTL5    -0.350000       12.0110           0
      4548 MEMB     42       OSM      H15A     HL       0.250000       1.00800           0
      4549 MEMB     42       OSM      H15B     HL       0.250000       1.00800           0
      4550 MEMB     42       OSM      H15C     HL       0.250000       1.00800           0
      4551 MEMB     42       OSM      C14      CTL5    -0.350000       12.0110           0
      4552 MEMB     42       OSM      H14A     HL       0.250000       1.00800           0
      4553 MEMB     42       OSM      H14B     HL       0.250000       1.00800           0
      4554 MEMB     42       OSM      H14C     HL       0.250000       1.00800           0
      4555 MEMB     42       OSM      C13      CTL5    -0.350000       12.0110           0
      4556 MEMB     42       OSM      H13A     HL       0.250000       1.00800           0
      4557 MEMB     42       OSM      H13B     HL       0.250000       1.00800           0
      4558 MEMB     42       OSM      H13C     HL       0.250000       1.00800           0
      4559 MEMB     42       OSM      C12      CTL2    -0.100000       12.0110           0
      4560 MEMB     42       OSM      H12A     HL       0.250000       1.00800           0
      4561 MEMB     42       OSM      H12B     HL       0.250000       1.00800           0
      4562 MEMB     42       OSM      C11      CTL2    -0.800000E-01   12.0110           0
      4563 MEMB     42       OSM      H11A     HAL2     0.900000E-01   1.00800           0
      4564 MEMB     42       OSM      H11B     HAL2     0.900000E-01   1.00800           0
      4565 MEMB     42       OSM      P        PL        1.50000       30.9740           0
      4566 MEMB     42       OSM      O13      O2L     -0.780000       15.9994           0
      4567 MEMB     42       OSM      O14      O2L     -0.780000       15.9994           0
      4568 MEMB     42       OSM      O11      OSLP    -0.570000       15.9994           0
      4569 MEMB     42       OSM      O12      OSLP    -0.570000       15.9994           0
      4570 MEMB     42       OSM      C1S      CTL2    -0.800000E-01   12.0110           0
      4571 MEMB     42       OSM      H1S      HAL2     0.900000E-01   1.00800           0
      4572 MEMB     42       OSM      H1T      HAL2     0.900000E-01   1.00800           0
      4573 MEMB     42       OSM      NF       NHL     -0.700000       14.0070           0
      4574 MEMB     42       OSM      HNF      H        0.350000       1.00800           0
      4575 MEMB     42       OSM      C2S      CTL1     0.300000       12.0110           0
      4576 MEMB     42       OSM      H2S      HAL1     0.500000E-01   1.00800           0
      4577 MEMB     42       OSM      C3S      CTO1     0.500000       12.0110           0
      4578 MEMB     42       OSM      H3S      HAL1    -0.110000       1.00800           0
      4579 MEMB     42       OSM      O3       OHL     -0.690000       15.9994           0
      4580 MEMB     42       OSM      HO3      HOL      0.300000       1.00800           0
      4581 MEMB     42       OSM      C4S      CEL3    -0.150000       12.0110           0
      4582 MEMB     42       OSM      H4S      HEL1     0.150000       1.00800           0
      4583 MEMB     42       OSM      C5S      CEL3    -0.150000       12.0110           0
      4584 MEMB     42       OSM      H5S      HEL1     0.150000       1.00800           0
      4585 MEMB     42       OSM      C6S      CTL2    -0.180000       12.0110           0
      4586 MEMB     42       OSM      H6S      HAL2     0.900000E-01   1.00800           0
      4587 MEMB     42       OSM      H6T      HAL2     0.900000E-01   1.00800           0
      4588 MEMB     42       OSM      C7S      CTL2    -0.180000       12.0110           0
      4589 MEMB     42       OSM      H7S      HAL2     0.900000E-01   1.00800           0
      4590 MEMB     42       OSM      H7T      HAL2     0.900000E-01   1.00800           0
      4591 MEMB     42       OSM      C8S      CTL2    -0.180000       12.0110           0
      4592 MEMB     42       OSM      H8S      HAL2     0.900000E-01   1.00800           0
      4593 MEMB     42       OSM      H8T      HAL2     0.900000E-01   1.00800           0
      4594 MEMB     42       OSM      C9S      CTL2    -0.180000       12.0110           0
      4595 MEMB     42       OSM      H9S      HAL2     0.900000E-01   1.00800           0
      4596 MEMB     42       OSM      H9T      HAL2     0.900000E-01   1.00800           0
      4597 MEMB     42       OSM      C10S     CTL2    -0.180000       12.0110           0
      4598 MEMB     42       OSM      H10S     HAL2     0.900000E-01   1.00800           0
      4599 MEMB     42       OSM      H10T     HAL2     0.900000E-01   1.00800           0
      4600 MEMB     42       OSM      C11S     CTL2    -0.180000       12.0110           0
      4601 MEMB     42       OSM      H11S     HAL2     0.900000E-01   1.00800           0
      4602 MEMB     42       OSM      H11T     HAL2     0.900000E-01   1.00800           0
      4603 MEMB     42       OSM      C12S     CTL2    -0.180000       12.0110           0
      4604 MEMB     42       OSM      H12S     HAL2     0.900000E-01   1.00800           0
      4605 MEMB     42       OSM      H12T     HAL2     0.900000E-01   1.00800           0
      4606 MEMB     42       OSM      C13S     CTL2    -0.180000       12.0110           0
      4607 MEMB     42       OSM      H13S     HAL2     0.900000E-01   1.00800           0
      4608 MEMB     42       OSM      H13T     HAL2     0.900000E-01   1.00800           0
      4609 MEMB     42       OSM      C14S     CTL2    -0.180000       12.0110           0
      4610 MEMB     42       OSM      H14S     HAL2     0.900000E-01   1.00800           0
      4611 MEMB     42       OSM      H14T     HAL2     0.900000E-01   1.00800           0
      4612 MEMB     42       OSM      C15S     CTL2    -0.180000       12.0110           0
      4613 MEMB     42       OSM      H15S     HAL2     0.900000E-01   1.00800           0
      4614 MEMB     42       OSM      H15T     HAL2     0.900000E-01   1.00800           0
      4615 MEMB     42       OSM      C16S     CTL2    -0.180000       12.0110           0
      4616 MEMB     42       OSM      H16S     HAL2     0.900000E-01   1.00800           0
      4617 MEMB     42       OSM      H16T     HAL2     0.900000E-01   1.00800           0
      4618 MEMB     42       OSM      C17S     CTL2    -0.180000       12.0110           0
      4619 MEMB     42       OSM      H17S     HAL2     0.900000E-01   1.00800           0
      4620 MEMB     42       OSM      H17T     HAL2     0.900000E-01   1.00800           0
      4621 MEMB     42       OSM      C18S     CTL3    -0.270000       12.0110           0
      4622 MEMB     42       OSM      H18S     HAL3     0.900000E-01   1.00800           0
      4623 MEMB     42       OSM      H18T     HAL3     0.900000E-01   1.00800           0
      4624 MEMB     42       OSM      H18U     HAL3     0.900000E-01   1.00800           0
      4625 MEMB     42       OSM      C1F      C        0.550000       12.0110           0
      4626 MEMB     42       OSM      OF       O       -0.600000       15.9994           0
      4627 MEMB     42       OSM      C2F      CTL2    -0.700000E-01   12.0110           0
      4628 MEMB     42       OSM      H2F      HAL2     0.600000E-01   1.00800           0
      4629 MEMB     42       OSM      H2G      HAL2     0.600000E-01   1.00800           0
      4630 MEMB     42       OSM      C3F      CTL2    -0.180000       12.0110           0
      4631 MEMB     42       OSM      H3F      HAL2     0.900000E-01   1.00800           0
      4632 MEMB     42       OSM      H3G      HAL2     0.900000E-01   1.00800           0
      4633 MEMB     42       OSM      C4F      CTL2    -0.180000       12.0110           0
      4634 MEMB     42       OSM      H4F      HAL2     0.900000E-01   1.00800           0
      4635 MEMB     42       OSM      H4G      HAL2     0.900000E-01   1.00800           0
      4636 MEMB     42       OSM      C5F      CTL2    -0.180000       12.0110           0
      4637 MEMB     42       OSM      H5F      HAL2     0.900000E-01   1.00800           0
      4638 MEMB     42       OSM      H5G      HAL2     0.900000E-01   1.00800           0
      4639 MEMB     42       OSM      C6F      CTL2    -0.180000       12.0110           0
      4640 MEMB     42       OSM      H6F      HAL2     0.900000E-01   1.00800           0
      4641 MEMB     42       OSM      H6G      HAL2     0.900000E-01   1.00800           0
      4642 MEMB     42       OSM      C7F      CTL2    -0.180000       12.0110           0
      4643 MEMB     42       OSM      H7F      HAL2     0.900000E-01   1.00800           0
      4644 MEMB     42       OSM      H7G      HAL2     0.900000E-01   1.00800           0
      4645 MEMB     42       OSM      C8F      CTL2    -0.180000       12.0110           0
      4646 MEMB     42       OSM      H8F      HAL2     0.900000E-01   1.00800           0
      4647 MEMB     42       OSM      H8G      HAL2     0.900000E-01   1.00800           0
      4648 MEMB     42       OSM      C9F      CEL1    -0.150000       12.0110           0
      4649 MEMB     42       OSM      H9F      HEL1     0.150000       1.00800           0
      4650 MEMB     42       OSM      C10F     CEL1    -0.150000       12.0110           0
      4651 MEMB     42       OSM      H10F     HEL1     0.150000       1.00800           0
      4652 MEMB     42       OSM      C11F     CTL2    -0.180000       12.0110           0
      4653 MEMB     42       OSM      H11F     HAL2     0.900000E-01   1.00800           0
      4654 MEMB     42       OSM      H11G     HAL2     0.900000E-01   1.00800           0
      4655 MEMB     42       OSM      C12F     CTL2    -0.180000       12.0110           0
      4656 MEMB     42       OSM      H12F     HAL2     0.900000E-01   1.00800           0
      4657 MEMB     42       OSM      H12G     HAL2     0.900000E-01   1.00800           0
      4658 MEMB     42       OSM      C13F     CTL2    -0.180000       12.0110           0
      4659 MEMB     42       OSM      H13F     HAL2     0.900000E-01   1.00800           0
      4660 MEMB     42       OSM      H13G     HAL2     0.900000E-01   1.00800           0
      4661 MEMB     42       OSM      C14F     CTL2    -0.180000       12.0110           0
      4662 MEMB     42       OSM      H14F     HAL2     0.900000E-01   1.00800           0
      4663 MEMB     42       OSM      H14G     HAL2     0.900000E-01   1.00800           0
      4664 MEMB     42       OSM      C15F     CTL2    -0.180000       12.0110           0
      4665 MEMB     42       OSM      H15F     HAL2     0.900000E-01   1.00800           0
      4666 MEMB     42       OSM      H15G     HAL2     0.900000E-01   1.00800           0
      4667 MEMB     42       OSM      C16F     CTL2    -0.180000       12.0110           0
      4668 MEMB     42       OSM      H16F     HAL2     0.900000E-01   1.00800           0
      4669 MEMB     42       OSM      H16G     HAL2     0.900000E-01   1.00800           0
      4670 MEMB     42       OSM      C17F     CTL2    -0.180000       12.0110           0
      4671 MEMB     42       OSM      H17F     HAL2     0.900000E-01   1.00800           0
      4672 MEMB     42       OSM      H17G     HAL2     0.900000E-01   1.00800           0
      4673 MEMB     42       OSM      C18F     CTL3    -0.270000       12.0110           0
      4674 MEMB     42       OSM      H18F     HAL3     0.900000E-01   1.00800           0
      4675 MEMB     42       OSM      H18G     HAL3     0.900000E-01   1.00800           0
      4676 MEMB     42       OSM      H18H     HAL3     0.900000E-01   1.00800           0
      4677 MEMB     43       SAPS     N        NH3L    -0.300000       14.0070           0
      4678 MEMB     43       SAPS     HN1      HCL      0.330000       1.00800           0
      4679 MEMB     43       SAPS     HN2      HCL      0.330000       1.00800           0
      4680 MEMB     43       SAPS     HN3      HCL      0.330000       1.00800           0
      4681 MEMB     43       SAPS     C12      CTL1     0.210000       12.0110           0
      4682 MEMB     43       SAPS     H12A     HBL      0.100000       1.00800           0
      4683 MEMB     43       SAPS     C13      CCL      0.340000       12.0110           0
      4684 MEMB     43       SAPS     O13A     OCL     -0.670000       15.9994           0
      4685 MEMB     43       SAPS     O13B     OCL     -0.670000       15.9994           0
      4686 MEMB     43       SAPS     C11      CTL2    -0.800000E-01   12.0110           0
      4687 MEMB     43       SAPS     H11A     HAL2     0.900000E-01   1.00800           0
      4688 MEMB     43       SAPS     H11B     HAL2     0.900000E-01   1.00800           0
      4689 MEMB     43       SAPS     P        PL        1.50000       30.9740           0
      4690 MEMB     43       SAPS     O13      O2L     -0.780000       15.9994           0
      4691 MEMB     43       SAPS     O14      O2L     -0.780000       15.9994           0
      4692 MEMB     43       SAPS     O12      OSLP    -0.570000       15.9994           0
      4693 MEMB     43       SAPS     O11      OSLP    -0.570000       15.9994           0
      4694 MEMB     43       SAPS     C1       CTL2    -0.800000E-01   12.0110           0
      4695 MEMB     43       SAPS     HA       HAL2     0.900000E-01   1.00800           0
      4696 MEMB     43       SAPS     HB       HAL2     0.900000E-01   1.00800           0
      4697 MEMB     43       SAPS     C2       CTL1     0.170000       12.0110           0
      4698 MEMB     43       SAPS     HS       HAL1     0.900000E-01   1.00800           0
      4699 MEMB     43       SAPS     O21      OSL     -0.490000       15.9994           0
      4700 MEMB     43       SAPS     C21      CL       0.900000       12.0110           0
      4701 MEMB     43       SAPS     O22      OBL     -0.630000       15.9994           0
      4702 MEMB     43       SAPS     C22      CTL2    -0.220000       12.0110           0
      4703 MEMB     43       SAPS     H2R      HAL2     0.900000E-01   1.00800           0
      4704 MEMB     43       SAPS     H2S      HAL2     0.900000E-01   1.00800           0
      4705 MEMB     43       SAPS     C3       CTL2     0.800000E-01   12.0110           0
      4706 MEMB     43       SAPS     HX       HAL2     0.900000E-01   1.00800           0
      4707 MEMB     43       SAPS     HY       HAL2     0.900000E-01   1.00800           0
      4708 MEMB     43       SAPS     O31      OSL     -0.490000       15.9994           0
      4709 MEMB     43       SAPS     C31      CL       0.900000       12.0110           0
      4710 MEMB     43       SAPS     O32      OBL     -0.630000       15.9994           0
      4711 MEMB     43       SAPS     C32      CTL2    -0.220000       12.0110           0
      4712 MEMB     43       SAPS     H2X      HAL2     0.900000E-01   1.00800           0
      4713 MEMB     43       SAPS     H2Y      HAL2     0.900000E-01   1.00800           0
      4714 MEMB     43       SAPS     C23      CTL2    -0.180000       12.0110           0
      4715 MEMB     43       SAPS     H3R      HAL2     0.900000E-01   1.00800           0
      4716 MEMB     43       SAPS     H3S      HAL2     0.900000E-01   1.00800           0
      4717 MEMB     43       SAPS     C24      CTL2    -0.180000       12.0110           0
      4718 MEMB     43       SAPS     H4R      HAL2     0.900000E-01   1.00800           0
      4719 MEMB     43       SAPS     H4S      HAL2     0.900000E-01   1.00800           0
      4720 MEMB     43       SAPS     C25      CEL1    -0.150000       12.0110           0
      4721 MEMB     43       SAPS     H5R      HEL1     0.150000       1.00800           0
      4722 MEMB     43       SAPS     C26      CEL1    -0.150000       12.0110           0
      4723 MEMB     43       SAPS     H6R      HEL1     0.150000       1.00800           0
      4724 MEMB     43       SAPS     C27      CTL2    -0.180000       12.0110           0
      4725 MEMB     43       SAPS     H7R      HAL2     0.900000E-01   1.00800           0
      4726 MEMB     43       SAPS     H7S      HAL2     0.900000E-01   1.00800           0
      4727 MEMB     43       SAPS     C28      CEL1    -0.150000       12.0110           0
      4728 MEMB     43       SAPS     H8R      HEL1     0.150000       1.00800           0
      4729 MEMB     43       SAPS     C29      CEL1    -0.150000       12.0110           0
      4730 MEMB     43       SAPS     H9R      HEL1     0.150000       1.00800           0
      4731 MEMB     43       SAPS     C210     CTL2    -0.180000       12.0110           0
      4732 MEMB     43       SAPS     H10R     HAL2     0.900000E-01   1.00800           0
      4733 MEMB     43       SAPS     H10S     HAL2     0.900000E-01   1.00800           0
      4734 MEMB     43       SAPS     C211     CEL1    -0.150000       12.0110           0
      4735 MEMB     43       SAPS     H11R     HEL1     0.150000       1.00800           0
      4736 MEMB     43       SAPS     C212     CEL1    -0.150000       12.0110           0
      4737 MEMB     43       SAPS     H12R     HEL1     0.150000       1.00800           0
      4738 MEMB     43       SAPS     C213     CTL2    -0.180000       12.0110           0
      4739 MEMB     43       SAPS     H13R     HAL2     0.900000E-01   1.00800           0
      4740 MEMB     43       SAPS     H13S     HAL2     0.900000E-01   1.00800           0
      4741 MEMB     43       SAPS     C214     CEL1    -0.150000       12.0110           0
      4742 MEMB     43       SAPS     H14R     HEL1     0.150000       1.00800           0
      4743 MEMB     43       SAPS     C215     CEL1    -0.150000       12.0110           0
      4744 MEMB     43       SAPS     H15R     HEL1     0.150000       1.00800           0
      4745 MEMB     43       SAPS     C216     CTL2    -0.180000       12.0110           0
      4746 MEMB     43       SAPS     H16R     HAL2     0.900000E-01   1.00800           0
      4747 MEMB     43       SAPS     H16S     HAL2     0.900000E-01   1.00800           0
      4748 MEMB     43       SAPS     C217     CTL2    -0.180000       12.0110           0
      4749 MEMB     43       SAPS     H17R     HAL2     0.900000E-01   1.00800           0
      4750 MEMB     43       SAPS     H17S     HAL2     0.900000E-01   1.00800           0
      4751 MEMB     43       SAPS     C218     CTL2    -0.180000       12.0110           0
      4752 MEMB     43       SAPS     H18R     HAL2     0.900000E-01   1.00800           0
      4753 MEMB     43       SAPS     H18S     HAL2     0.900000E-01   1.00800           0
      4754 MEMB     43       SAPS     C219     CTL2    -0.180000       12.0110           0
      4755 MEMB     43       SAPS     H19R     HAL2     0.900000E-01   1.00800           0
      4756 MEMB     43       SAPS     H19S     HAL2     0.900000E-01   1.00800           0
      4757 MEMB     43       SAPS     C220     CTL3    -0.270000       12.0110           0
      4758 MEMB     43       SAPS     H20R     HAL3     0.900000E-01   1.00800           0
      4759 MEMB     43       SAPS     H20S     HAL3     0.900000E-01   1.00800           0
      4760 MEMB     43       SAPS     H20T     HAL3     0.900000E-01   1.00800           0
      4761 MEMB     43       SAPS     C33      CTL2    -0.180000       12.0110           0
      4762 MEMB     43       SAPS     H3X      HAL2     0.900000E-01   1.00800           0
      4763 MEMB     43       SAPS     H3Y      HAL2     0.900000E-01   1.00800           0
      4764 MEMB     43       SAPS     C34      CTL2    -0.180000       12.0110           0
      4765 MEMB     43       SAPS     H4X      HAL2     0.900000E-01   1.00800           0
      4766 MEMB     43       SAPS     H4Y      HAL2     0.900000E-01   1.00800           0
      4767 MEMB     43       SAPS     C35      CTL2    -0.180000       12.0110           0
      4768 MEMB     43       SAPS     H5X      HAL2     0.900000E-01   1.00800           0
      4769 MEMB     43       SAPS     H5Y      HAL2     0.900000E-01   1.00800           0
      4770 MEMB     43       SAPS     C36      CTL2    -0.180000       12.0110           0
      4771 MEMB     43       SAPS     H6X      HAL2     0.900000E-01   1.00800           0
      4772 MEMB     43       SAPS     H6Y      HAL2     0.900000E-01   1.00800           0
      4773 MEMB     43       SAPS     C37      CTL2    -0.180000       12.0110           0
      4774 MEMB     43       SAPS     H7X      HAL2     0.900000E-01   1.00800           0
      4775 MEMB     43       SAPS     H7Y      HAL2     0.900000E-01   1.00800           0
      4776 MEMB     43       SAPS     C38      CTL2    -0.180000       12.0110           0
      4777 MEMB     43       SAPS     H8X      HAL2     0.900000E-01   1.00800           0
      4778 MEMB     43       SAPS     H8Y      HAL2     0.900000E-01   1.00800           0
      4779 MEMB     43       SAPS     C39      CTL2    -0.180000       12.0110           0
      4780 MEMB     43       SAPS     H9X      HAL2     0.900000E-01   1.00800           0
      4781 MEMB     43       SAPS     H9Y      HAL2     0.900000E-01   1.00800           0
      4782 MEMB     43       SAPS     C310     CTL2    -0.180000       12.0110           0
      4783 MEMB     43       SAPS     H10X     HAL2     0.900000E-01   1.00800           0
      4784 MEMB     43       SAPS     H10Y     HAL2     0.900000E-01   1.00800           0
      4785 MEMB     43       SAPS     C311     CTL2    -0.180000       12.0110           0
      4786 MEMB     43       SAPS     H11X     HAL2     0.900000E-01   1.00800           0
      4787 MEMB     43       SAPS     H11Y     HAL2     0.900000E-01   1.00800           0
      4788 MEMB     43       SAPS     C312     CTL2    -0.180000       12.0110           0
      4789 MEMB     43       SAPS     H12X     HAL2     0.900000E-01   1.00800           0
      4790 MEMB     43       SAPS     H12Y     HAL2     0.900000E-01   1.00800           0
      4791 MEMB     43       SAPS     C313     CTL2    -0.180000       12.0110           0
      4792 MEMB     43       SAPS     H13X     HAL2     0.900000E-01   1.00800           0
      4793 MEMB     43       SAPS     H13Y     HAL2     0.900000E-01   1.00800           0
      4794 MEMB     43       SAPS     C314     CTL2    -0.180000       12.0110           0
      4795 MEMB     43       SAPS     H14X     HAL2     0.900000E-01   1.00800           0
      4796 MEMB     43       SAPS     H14Y     HAL2     0.900000E-01   1.00800           0
      4797 MEMB     43       SAPS     C315     CTL2    -0.180000       12.0110           0
      4798 MEMB     43       SAPS     H15X     HAL2     0.900000E-01   1.00800           0
      4799 MEMB     43       SAPS     H15Y     HAL2     0.900000E-01   1.00800           0
      4800 MEMB     43       SAPS     C316     CTL2    -0.180000       12.0110           0
      4801 MEMB     43       SAPS     H16X     HAL2     0.900000E-01   1.00800           0
      4802 MEMB     43       SAPS     H16Y     HAL2     0.900000E-01   1.00800           0
      4803 MEMB     43       SAPS     C317     CTL2    -0.180000       12.0110           0
      4804 MEMB     43       SAPS     H17X     HAL2     0.900000E-01   1.00800           0
      4805 MEMB     43       SAPS     H17Y     HAL2     0.900000E-01   1.00800           0
      4806 MEMB     43       SAPS     C318     CTL3    -0.270000       12.0110           0
      4807 MEMB     43       SAPS     H18X     HAL3     0.900000E-01   1.00800           0
      4808 MEMB     43       SAPS     H18Y     HAL3     0.900000E-01   1.00800           0
      4809 MEMB     43       SAPS     H18Z     HAL3     0.900000E-01   1.00800           0
      4810 MEMB     44       OSM      N        NTL     -0.600000       14.0070           0
      4811 MEMB     44       OSM      C15      CTL5    -0.350000       12.0110           0
      4812 MEMB     44       OSM      H15A     HL       0.250000       1.00800           0
      4813 MEMB     44       OSM      H15B     HL       0.250000       1.00800           0
      4814 MEMB     44       OSM      H15C     HL       0.250000       1.00800           0
      4815 MEMB     44       OSM      C14      CTL5    -0.350000       12.0110           0
      4816 MEMB     44       OSM      H14A     HL       0.250000       1.00800           0
      4817 MEMB     44       OSM      H14B     HL       0.250000       1.00800           0
      4818 MEMB     44       OSM      H14C     HL       0.250000       1.00800           0
      4819 MEMB     44       OSM      C13      CTL5    -0.350000       12.0110           0
      4820 MEMB     44       OSM      H13A     HL       0.250000       1.00800           0
      4821 MEMB     44       OSM      H13B     HL       0.250000       1.00800           0
      4822 MEMB     44       OSM      H13C     HL       0.250000       1.00800           0
      4823 MEMB     44       OSM      C12      CTL2    -0.100000       12.0110           0
      4824 MEMB     44       OSM      H12A     HL       0.250000       1.00800           0
      4825 MEMB     44       OSM      H12B     HL       0.250000       1.00800           0
      4826 MEMB     44       OSM      C11      CTL2    -0.800000E-01   12.0110           0
      4827 MEMB     44       OSM      H11A     HAL2     0.900000E-01   1.00800           0
      4828 MEMB     44       OSM      H11B     HAL2     0.900000E-01   1.00800           0
      4829 MEMB     44       OSM      P        PL        1.50000       30.9740           0
      4830 MEMB     44       OSM      O13      O2L     -0.780000       15.9994           0
      4831 MEMB     44       OSM      O14      O2L     -0.780000       15.9994           0
      4832 MEMB     44       OSM      O11      OSLP    -0.570000       15.9994           0
      4833 MEMB     44       OSM      O12      OSLP    -0.570000       15.9994           0
      4834 MEMB     44       OSM      C1S      CTL2    -0.800000E-01   12.0110           0
      4835 MEMB     44       OSM      H1S      HAL2     0.900000E-01   1.00800           0
      4836 MEMB     44       OSM      H1T      HAL2     0.900000E-01   1.00800           0
      4837 MEMB     44       OSM      NF       NHL     -0.700000       14.0070           0
      4838 MEMB     44       OSM      HNF      H        0.350000       1.00800           0
      4839 MEMB     44       OSM      C2S      CTL1     0.300000       12.0110           0
      4840 MEMB     44       OSM      H2S      HAL1     0.500000E-01   1.00800           0
      4841 MEMB     44       OSM      C3S      CTO1     0.500000       12.0110           0
      4842 MEMB     44       OSM      H3S      HAL1    -0.110000       1.00800           0
      4843 MEMB     44       OSM      O3       OHL     -0.690000       15.9994           0
      4844 MEMB     44       OSM      HO3      HOL      0.300000       1.00800           0
      4845 MEMB     44       OSM      C4S      CEL3    -0.150000       12.0110           0
      4846 MEMB     44       OSM      H4S      HEL1     0.150000       1.00800           0
      4847 MEMB     44       OSM      C5S      CEL3    -0.150000       12.0110           0
      4848 MEMB     44       OSM      H5S      HEL1     0.150000       1.00800           0
      4849 MEMB     44       OSM      C6S      CTL2    -0.180000       12.0110           0
      4850 MEMB     44       OSM      H6S      HAL2     0.900000E-01   1.00800           0
      4851 MEMB     44       OSM      H6T      HAL2     0.900000E-01   1.00800           0
      4852 MEMB     44       OSM      C7S      CTL2    -0.180000       12.0110           0
      4853 MEMB     44       OSM      H7S      HAL2     0.900000E-01   1.00800           0
      4854 MEMB     44       OSM      H7T      HAL2     0.900000E-01   1.00800           0
      4855 MEMB     44       OSM      C8S      CTL2    -0.180000       12.0110           0
      4856 MEMB     44       OSM      H8S      HAL2     0.900000E-01   1.00800           0
      4857 MEMB     44       OSM      H8T      HAL2     0.900000E-01   1.00800           0
      4858 MEMB     44       OSM      C9S      CTL2    -0.180000       12.0110           0
      4859 MEMB     44       OSM      H9S      HAL2     0.900000E-01   1.00800           0
      4860 MEMB     44       OSM      H9T      HAL2     0.900000E-01   1.00800           0
      4861 MEMB     44       OSM      C10S     CTL2    -0.180000       12.0110           0
      4862 MEMB     44       OSM      H10S     HAL2     0.900000E-01   1.00800           0
      4863 MEMB     44       OSM      H10T     HAL2     0.900000E-01   1.00800           0
      4864 MEMB     44       OSM      C11S     CTL2    -0.180000       12.0110           0
      4865 MEMB     44       OSM      H11S     HAL2     0.900000E-01   1.00800           0
      4866 MEMB     44       OSM      H11T     HAL2     0.900000E-01   1.00800           0
      4867 MEMB     44       OSM      C12S     CTL2    -0.180000       12.0110           0
      4868 MEMB     44       OSM      H12S     HAL2     0.900000E-01   1.00800           0
      4869 MEMB     44       OSM      H12T     HAL2     0.900000E-01   1.00800           0
      4870 MEMB     44       OSM      C13S     CTL2    -0.180000       12.0110           0
      4871 MEMB     44       OSM      H13S     HAL2     0.900000E-01   1.00800           0
      4872 MEMB     44       OSM      H13T     HAL2     0.900000E-01   1.00800           0
      4873 MEMB     44       OSM      C14S     CTL2    -0.180000       12.0110           0
      4874 MEMB     44       OSM      H14S     HAL2     0.900000E-01   1.00800           0
      4875 MEMB     44       OSM      H14T     HAL2     0.900000E-01   1.00800           0
      4876 MEMB     44       OSM      C15S     CTL2    -0.180000       12.0110           0
      4877 MEMB     44       OSM      H15S     HAL2     0.900000E-01   1.00800           0
      4878 MEMB     44       OSM      H15T     HAL2     0.900000E-01   1.00800           0
      4879 MEMB     44       OSM      C16S     CTL2    -0.180000       12.0110           0
      4880 MEMB     44       OSM      H16S     HAL2     0.900000E-01   1.00800           0
      4881 MEMB     44       OSM      H16T     HAL2     0.900000E-01   1.00800           0
      4882 MEMB     44       OSM      C17S     CTL2    -0.180000       12.0110           0
      4883 MEMB     44       OSM      H17S     HAL2     0.900000E-01   1.00800           0
      4884 MEMB     44       OSM      H17T     HAL2     0.900000E-01   1.00800           0
      4885 MEMB     44       OSM      C18S     CTL3    -0.270000       12.0110           0
      4886 MEMB     44       OSM      H18S     HAL3     0.900000E-01   1.00800           0
      4887 MEMB     44       OSM      H18T     HAL3     0.900000E-01   1.00800           0
      4888 MEMB     44       OSM      H18U     HAL3     0.900000E-01   1.00800           0
      4889 MEMB     44       OSM      C1F      C        0.550000       12.0110           0
      4890 MEMB     44       OSM      OF       O       -0.600000       15.9994           0
      4891 MEMB     44       OSM      C2F      CTL2    -0.700000E-01   12.0110           0
      4892 MEMB     44       OSM      H2F      HAL2     0.600000E-01   1.00800           0
      4893 MEMB     44       OSM      H2G      HAL2     0.600000E-01   1.00800           0
      4894 MEMB     44       OSM      C3F      CTL2    -0.180000       12.0110           0
      4895 MEMB     44       OSM      H3F      HAL2     0.900000E-01   1.00800           0
      4896 MEMB     44       OSM      H3G      HAL2     0.900000E-01   1.00800           0
      4897 MEMB     44       OSM      C4F      CTL2    -0.180000       12.0110           0
      4898 MEMB     44       OSM      H4F      HAL2     0.900000E-01   1.00800           0
      4899 MEMB     44       OSM      H4G      HAL2     0.900000E-01   1.00800           0
      4900 MEMB     44       OSM      C5F      CTL2    -0.180000       12.0110           0
      4901 MEMB     44       OSM      H5F      HAL2     0.900000E-01   1.00800           0
      4902 MEMB     44       OSM      H5G      HAL2     0.900000E-01   1.00800           0
      4903 MEMB     44       OSM      C6F      CTL2    -0.180000       12.0110           0
      4904 MEMB     44       OSM      H6F      HAL2     0.900000E-01   1.00800           0
      4905 MEMB     44       OSM      H6G      HAL2     0.900000E-01   1.00800           0
      4906 MEMB     44       OSM      C7F      CTL2    -0.180000       12.0110           0
      4907 MEMB     44       OSM      H7F      HAL2     0.900000E-01   1.00800           0
      4908 MEMB     44       OSM      H7G      HAL2     0.900000E-01   1.00800           0
      4909 MEMB     44       OSM      C8F      CTL2    -0.180000       12.0110           0
      4910 MEMB     44       OSM      H8F      HAL2     0.900000E-01   1.00800           0
      4911 MEMB     44       OSM      H8G      HAL2     0.900000E-01   1.00800           0
      4912 MEMB     44       OSM      C9F      CEL1    -0.150000       12.0110           0
      4913 MEMB     44       OSM      H9F      HEL1     0.150000       1.00800           0
      4914 MEMB     44       OSM      C10F     CEL1    -0.150000       12.0110           0
      4915 MEMB     44       OSM      H10F     HEL1     0.150000       1.00800           0
      4916 MEMB     44       OSM      C11F     CTL2    -0.180000       12.0110           0
      4917 MEMB     44       OSM      H11F     HAL2     0.900000E-01   1.00800           0
      4918 MEMB     44       OSM      H11G     HAL2     0.900000E-01   1.00800           0
      4919 MEMB     44       OSM      C12F     CTL2    -0.180000       12.0110           0
      4920 MEMB     44       OSM      H12F     HAL2     0.900000E-01   1.00800           0
      4921 MEMB     44       OSM      H12G     HAL2     0.900000E-01   1.00800           0
      4922 MEMB     44       OSM      C13F     CTL2    -0.180000       12.0110           0
      4923 MEMB     44       OSM      H13F     HAL2     0.900000E-01   1.00800           0
      4924 MEMB     44       OSM      H13G     HAL2     0.900000E-01   1.00800           0
      4925 MEMB     44       OSM      C14F     CTL2    -0.180000       12.0110           0
      4926 MEMB     44       OSM      H14F     HAL2     0.900000E-01   1.00800           0
      4927 MEMB     44       OSM      H14G     HAL2     0.900000E-01   1.00800           0
      4928 MEMB     44       OSM      C15F     CTL2    -0.180000       12.0110           0
      4929 MEMB     44       OSM      H15F     HAL2     0.900000E-01   1.00800           0
      4930 MEMB     44       OSM      H15G     HAL2     0.900000E-01   1.00800           0
      4931 MEMB     44       OSM      C16F     CTL2    -0.180000       12.0110           0
      4932 MEMB     44       OSM      H16F     HAL2     0.900000E-01   1.00800           0
      4933 MEMB     44       OSM      H16G     HAL2     0.900000E-01   1.00800           0
      4934 MEMB     44       OSM      C17F     CTL2    -0.180000       12.0110           0
      4935 MEMB     44       OSM      H17F     HAL2     0.900000E-01   1.00800           0
      4936 MEMB     44       OSM      H17G     HAL2     0.900000E-01   1.00800           0
      4937 MEMB     44       OSM      C18F     CTL3    -0.270000       12.0110           0
      4938 MEMB     44       OSM      H18F     HAL3     0.900000E-01   1.00800           0
      4939 MEMB     44       OSM      H18G     HAL3     0.900000E-01   1.00800           0
      4940 MEMB     44       OSM      H18H     HAL3     0.900000E-01   1.00800           0
      4941 MEMB     45       SLPC     N        NTL     -0.600000       14.0070           0
      4942 MEMB     45       SLPC     C13      CTL5    -0.350000       12.0110           0
      4943 MEMB     45       SLPC     H13A     HL       0.250000       1.00800           0
      4944 MEMB     45       SLPC     H13B     HL       0.250000       1.00800           0
      4945 MEMB     45       SLPC     H13C     HL       0.250000       1.00800           0
      4946 MEMB     45       SLPC     C14      CTL5    -0.350000       12.0110           0
      4947 MEMB     45       SLPC     H14A     HL       0.250000       1.00800           0
      4948 MEMB     45       SLPC     H14B     HL       0.250000       1.00800           0
      4949 MEMB     45       SLPC     H14C     HL       0.250000       1.00800           0
      4950 MEMB     45       SLPC     C15      CTL5    -0.350000       12.0110           0
      4951 MEMB     45       SLPC     H15A     HL       0.250000       1.00800           0
      4952 MEMB     45       SLPC     H15B     HL       0.250000       1.00800           0
      4953 MEMB     45       SLPC     H15C     HL       0.250000       1.00800           0
      4954 MEMB     45       SLPC     C12      CTL2    -0.100000       12.0110           0
      4955 MEMB     45       SLPC     H12A     HL       0.250000       1.00800           0
      4956 MEMB     45       SLPC     H12B     HL       0.250000       1.00800           0
      4957 MEMB     45       SLPC     C11      CTL2    -0.800000E-01   12.0110           0
      4958 MEMB     45       SLPC     H11A     HAL2     0.900000E-01   1.00800           0
      4959 MEMB     45       SLPC     H11B     HAL2     0.900000E-01   1.00800           0
      4960 MEMB     45       SLPC     P        PL        1.50000       30.9740           0
      4961 MEMB     45       SLPC     O13      O2L     -0.780000       15.9994           0
      4962 MEMB     45       SLPC     O14      O2L     -0.780000       15.9994           0
      4963 MEMB     45       SLPC     O12      OSLP    -0.570000       15.9994           0
      4964 MEMB     45       SLPC     O11      OSLP    -0.570000       15.9994           0
      4965 MEMB     45       SLPC     C1       CTL2    -0.800000E-01   12.0110           0
      4966 MEMB     45       SLPC     HA       HAL2     0.900000E-01   1.00800           0
      4967 MEMB     45       SLPC     HB       HAL2     0.900000E-01   1.00800           0
      4968 MEMB     45       SLPC     C2       CTL1     0.170000       12.0110           0
      4969 MEMB     45       SLPC     HS       HAL1     0.900000E-01   1.00800           0
      4970 MEMB     45       SLPC     O21      OSL     -0.490000       15.9994           0
      4971 MEMB     45       SLPC     C21      CL       0.900000       12.0110           0
      4972 MEMB     45       SLPC     O22      OBL     -0.630000       15.9994           0
      4973 MEMB     45       SLPC     C22      CTL2    -0.220000       12.0110           0
      4974 MEMB     45       SLPC     H2R      HAL2     0.900000E-01   1.00800           0
      4975 MEMB     45       SLPC     H2S      HAL2     0.900000E-01   1.00800           0
      4976 MEMB     45       SLPC     C3       CTL2     0.800000E-01   12.0110           0
      4977 MEMB     45       SLPC     HX       HAL2     0.900000E-01   1.00800           0
      4978 MEMB     45       SLPC     HY       HAL2     0.900000E-01   1.00800           0
      4979 MEMB     45       SLPC     O31      OSL     -0.490000       15.9994           0
      4980 MEMB     45       SLPC     C31      CL       0.900000       12.0110           0
      4981 MEMB     45       SLPC     O32      OBL     -0.630000       15.9994           0
      4982 MEMB     45       SLPC     C32      CTL2    -0.220000       12.0110           0
      4983 MEMB     45       SLPC     H2X      HAL2     0.900000E-01   1.00800           0
      4984 MEMB     45       SLPC     H2Y      HAL2     0.900000E-01   1.00800           0
      4985 MEMB     45       SLPC     C23      CTL2    -0.180000       12.0110           0
      4986 MEMB     45       SLPC     H3R      HAL2     0.900000E-01   1.00800           0
      4987 MEMB     45       SLPC     H3S      HAL2     0.900000E-01   1.00800           0
      4988 MEMB     45       SLPC     C24      CTL2    -0.180000       12.0110           0
      4989 MEMB     45       SLPC     H4R      HAL2     0.900000E-01   1.00800           0
      4990 MEMB     45       SLPC     H4S      HAL2     0.900000E-01   1.00800           0
      4991 MEMB     45       SLPC     C25      CTL2    -0.180000       12.0110           0
      4992 MEMB     45       SLPC     H5R      HAL2     0.900000E-01   1.00800           0
      4993 MEMB     45       SLPC     H5S      HAL2     0.900000E-01   1.00800           0
      4994 MEMB     45       SLPC     C26      CTL2    -0.180000       12.0110           0
      4995 MEMB     45       SLPC     H6R      HAL2     0.900000E-01   1.00800           0
      4996 MEMB     45       SLPC     H6S      HAL2     0.900000E-01   1.00800           0
      4997 MEMB     45       SLPC     C27      CTL2    -0.180000       12.0110           0
      4998 MEMB     45       SLPC     H7R      HAL2     0.900000E-01   1.00800           0
      4999 MEMB     45       SLPC     H7S      HAL2     0.900000E-01   1.00800           0
      5000 MEMB     45       SLPC     C28      CTL2    -0.180000       12.0110           0
      5001 MEMB     45       SLPC     H8R      HAL2     0.900000E-01   1.00800           0
      5002 MEMB     45       SLPC     H8S      HAL2     0.900000E-01   1.00800           0
      5003 MEMB     45       SLPC     C29      CEL1    -0.150000       12.0110           0
      5004 MEMB     45       SLPC     H9R      HEL1     0.150000       1.00800           0
      5005 MEMB     45       SLPC     C210     CEL1    -0.150000       12.0110           0
      5006 MEMB     45       SLPC     H10R     HEL1     0.150000       1.00800           0
      5007 MEMB     45       SLPC     C211     CTL2    -0.180000       12.0110           0
      5008 MEMB     45       SLPC     H11R     HAL2     0.900000E-01   1.00800           0
      5009 MEMB     45       SLPC     H11S     HAL2     0.900000E-01   1.00800           0
      5010 MEMB     45       SLPC     C212     CEL1    -0.150000       12.0110           0
      5011 MEMB     45       SLPC     H12R     HEL1     0.150000       1.00800           0
      5012 MEMB     45       SLPC     C213     CEL1    -0.150000       12.0110           0
      5013 MEMB     45       SLPC     H13R     HEL1     0.150000       1.00800           0
      5014 MEMB     45       SLPC     C214     CTL2    -0.180000       12.0110           0
      5015 MEMB     45       SLPC     H14R     HAL2     0.900000E-01   1.00800           0
      5016 MEMB     45       SLPC     H14S     HAL2     0.900000E-01   1.00800           0
      5017 MEMB     45       SLPC     C215     CTL2    -0.180000       12.0110           0
      5018 MEMB     45       SLPC     H15R     HAL2     0.900000E-01   1.00800           0
      5019 MEMB     45       SLPC     H15S     HAL2     0.900000E-01   1.00800           0
      5020 MEMB     45       SLPC     C216     CTL2    -0.180000       12.0110           0
      5021 MEMB     45       SLPC     H16R     HAL2     0.900000E-01   1.00800           0
      5022 MEMB     45       SLPC     H16S     HAL2     0.900000E-01   1.00800           0
      5023 MEMB     45       SLPC     C217     CTL2    -0.180000       12.0110           0
      5024 MEMB     45       SLPC     H17R     HAL2     0.900000E-01   1.00800           0
      5025 MEMB     45       SLPC     H17S     HAL2     0.900000E-01   1.00800           0
      5026 MEMB     45       SLPC     C218     CTL3    -0.270000       12.0110           0
      5027 MEMB     45       SLPC     H18R     HAL3     0.900000E-01   1.00800           0
      5028 MEMB     45       SLPC     H18S     HAL3     0.900000E-01   1.00800           0
      5029 MEMB     45       SLPC     H18T     HAL3     0.900000E-01   1.00800           0
      5030 MEMB     45       SLPC     C33      CTL2    -0.180000       12.0110           0
      5031 MEMB     45       SLPC     H3X      HAL2     0.900000E-01   1.00800           0
      5032 MEMB     45       SLPC     H3Y      HAL2     0.900000E-01   1.00800           0
      5033 MEMB     45       SLPC     C34      CTL2    -0.180000       12.0110           0
      5034 MEMB     45       SLPC     H4X      HAL2     0.900000E-01   1.00800           0
      5035 MEMB     45       SLPC     H4Y      HAL2     0.900000E-01   1.00800           0
      5036 MEMB     45       SLPC     C35      CTL2    -0.180000       12.0110           0
      5037 MEMB     45       SLPC     H5X      HAL2     0.900000E-01   1.00800           0
      5038 MEMB     45       SLPC     H5Y      HAL2     0.900000E-01   1.00800           0
      5039 MEMB     45       SLPC     C36      CTL2    -0.180000       12.0110           0
      5040 MEMB     45       SLPC     H6X      HAL2     0.900000E-01   1.00800           0
      5041 MEMB     45       SLPC     H6Y      HAL2     0.900000E-01   1.00800           0
      5042 MEMB     45       SLPC     C37      CTL2    -0.180000       12.0110           0
      5043 MEMB     45       SLPC     H7X      HAL2     0.900000E-01   1.00800           0
      5044 MEMB     45       SLPC     H7Y      HAL2     0.900000E-01   1.00800           0
      5045 MEMB     45       SLPC     C38      CTL2    -0.180000       12.0110           0
      5046 MEMB     45       SLPC     H8X      HAL2     0.900000E-01   1.00800           0
      5047 MEMB     45       SLPC     H8Y      HAL2     0.900000E-01   1.00800           0
      5048 MEMB     45       SLPC     C39      CTL2    -0.180000       12.0110           0
      5049 MEMB     45       SLPC     H9X      HAL2     0.900000E-01   1.00800           0
      5050 MEMB     45       SLPC     H9Y      HAL2     0.900000E-01   1.00800           0
      5051 MEMB     45       SLPC     C310     CTL2    -0.180000       12.0110           0
      5052 MEMB     45       SLPC     H10X     HAL2     0.900000E-01   1.00800           0
      5053 MEMB     45       SLPC     H10Y     HAL2     0.900000E-01   1.00800           0
      5054 MEMB     45       SLPC     C311     CTL2    -0.180000       12.0110           0
      5055 MEMB     45       SLPC     H11X     HAL2     0.900000E-01   1.00800           0
      5056 MEMB     45       SLPC     H11Y     HAL2     0.900000E-01   1.00800           0
      5057 MEMB     45       SLPC     C312     CTL2    -0.180000       12.0110           0
      5058 MEMB     45       SLPC     H12X     HAL2     0.900000E-01   1.00800           0
      5059 MEMB     45       SLPC     H12Y     HAL2     0.900000E-01   1.00800           0
      5060 MEMB     45       SLPC     C313     CTL2    -0.180000       12.0110           0
      5061 MEMB     45       SLPC     H13X     HAL2     0.900000E-01   1.00800           0
      5062 MEMB     45       SLPC     H13Y     HAL2     0.900000E-01   1.00800           0
      5063 MEMB     45       SLPC     C314     CTL2    -0.180000       12.0110           0
      5064 MEMB     45       SLPC     H14X     HAL2     0.900000E-01   1.00800           0
      5065 MEMB     45       SLPC     H14Y     HAL2     0.900000E-01   1.00800           0
      5066 MEMB     45       SLPC     C315     CTL2    -0.180000       12.0110           0
      5067 MEMB     45       SLPC     H15X     HAL2     0.900000E-01   1.00800           0
      5068 MEMB     45       SLPC     H15Y     HAL2     0.900000E-01   1.00800           0
      5069 MEMB     45       SLPC     C316     CTL2    -0.180000       12.0110           0
      5070 MEMB     45       SLPC     H16X     HAL2     0.900000E-01   1.00800           0
      5071 MEMB     45       SLPC     H16Y     HAL2     0.900000E-01   1.00800           0
      5072 MEMB     45       SLPC     C317     CTL2    -0.180000       12.0110           0
      5073 MEMB     45       SLPC     H17X     HAL2     0.900000E-01   1.00800           0
      5074 MEMB     45       SLPC     H17Y     HAL2     0.900000E-01   1.00800           0
      5075 MEMB     45       SLPC     C318     CTL3    -0.270000       12.0110           0
      5076 MEMB     45       SLPC     H18X     HAL3     0.900000E-01   1.00800           0
      5077 MEMB     45       SLPC     H18Y     HAL3     0.900000E-01   1.00800           0
      5078 MEMB     45       SLPC     H18Z     HAL3     0.900000E-01   1.00800           0
      5079 MEMB     46       OSM      N        NTL     -0.600000       14.0070           0
      5080 MEMB     46       OSM      C15      CTL5    -0.350000       12.0110           0
      5081 MEMB     46       OSM      H15A     HL       0.250000       1.00800           0
      5082 MEMB     46       OSM      H15B     HL       0.250000       1.00800           0
      5083 MEMB     46       OSM      H15C     HL       0.250000       1.00800           0
      5084 MEMB     46       OSM      C14      CTL5    -0.350000       12.0110           0
      5085 MEMB     46       OSM      H14A     HL       0.250000       1.00800           0
      5086 MEMB     46       OSM      H14B     HL       0.250000       1.00800           0
      5087 MEMB     46       OSM      H14C     HL       0.250000       1.00800           0
      5088 MEMB     46       OSM      C13      CTL5    -0.350000       12.0110           0
      5089 MEMB     46       OSM      H13A     HL       0.250000       1.00800           0
      5090 MEMB     46       OSM      H13B     HL       0.250000       1.00800           0
      5091 MEMB     46       OSM      H13C     HL       0.250000       1.00800           0
      5092 MEMB     46       OSM      C12      CTL2    -0.100000       12.0110           0
      5093 MEMB     46       OSM      H12A     HL       0.250000       1.00800           0
      5094 MEMB     46       OSM      H12B     HL       0.250000       1.00800           0
      5095 MEMB     46       OSM      C11      CTL2    -0.800000E-01   12.0110           0
      5096 MEMB     46       OSM      H11A     HAL2     0.900000E-01   1.00800           0
      5097 MEMB     46       OSM      H11B     HAL2     0.900000E-01   1.00800           0
      5098 MEMB     46       OSM      P        PL        1.50000       30.9740           0
      5099 MEMB     46       OSM      O13      O2L     -0.780000       15.9994           0
      5100 MEMB     46       OSM      O14      O2L     -0.780000       15.9994           0
      5101 MEMB     46       OSM      O11      OSLP    -0.570000       15.9994           0
      5102 MEMB     46       OSM      O12      OSLP    -0.570000       15.9994           0
      5103 MEMB     46       OSM      C1S      CTL2    -0.800000E-01   12.0110           0
      5104 MEMB     46       OSM      H1S      HAL2     0.900000E-01   1.00800           0
      5105 MEMB     46       OSM      H1T      HAL2     0.900000E-01   1.00800           0
      5106 MEMB     46       OSM      NF       NHL     -0.700000       14.0070           0
      5107 MEMB     46       OSM      HNF      H        0.350000       1.00800           0
      5108 MEMB     46       OSM      C2S      CTL1     0.300000       12.0110           0
      5109 MEMB     46       OSM      H2S      HAL1     0.500000E-01   1.00800           0
      5110 MEMB     46       OSM      C3S      CTO1     0.500000       12.0110           0
      5111 MEMB     46       OSM      H3S      HAL1    -0.110000       1.00800           0
      5112 MEMB     46       OSM      O3       OHL     -0.690000       15.9994           0
      5113 MEMB     46       OSM      HO3      HOL      0.300000       1.00800           0
      5114 MEMB     46       OSM      C4S      CEL3    -0.150000       12.0110           0
      5115 MEMB     46       OSM      H4S      HEL1     0.150000       1.00800           0
      5116 MEMB     46       OSM      C5S      CEL3    -0.150000       12.0110           0
      5117 MEMB     46       OSM      H5S      HEL1     0.150000       1.00800           0
      5118 MEMB     46       OSM      C6S      CTL2    -0.180000       12.0110           0
      5119 MEMB     46       OSM      H6S      HAL2     0.900000E-01   1.00800           0
      5120 MEMB     46       OSM      H6T      HAL2     0.900000E-01   1.00800           0
      5121 MEMB     46       OSM      C7S      CTL2    -0.180000       12.0110           0
      5122 MEMB     46       OSM      H7S      HAL2     0.900000E-01   1.00800           0
      5123 MEMB     46       OSM      H7T      HAL2     0.900000E-01   1.00800           0
      5124 MEMB     46       OSM      C8S      CTL2    -0.180000       12.0110           0
      5125 MEMB     46       OSM      H8S      HAL2     0.900000E-01   1.00800           0
      5126 MEMB     46       OSM      H8T      HAL2     0.900000E-01   1.00800           0
      5127 MEMB     46       OSM      C9S      CTL2    -0.180000       12.0110           0
      5128 MEMB     46       OSM      H9S      HAL2     0.900000E-01   1.00800           0
      5129 MEMB     46       OSM      H9T      HAL2     0.900000E-01   1.00800           0
      5130 MEMB     46       OSM      C10S     CTL2    -0.180000       12.0110           0
      5131 MEMB     46       OSM      H10S     HAL2     0.900000E-01   1.00800           0
      5132 MEMB     46       OSM      H10T     HAL2     0.900000E-01   1.00800           0
      5133 MEMB     46       OSM      C11S     CTL2    -0.180000       12.0110           0
      5134 MEMB     46       OSM      H11S     HAL2     0.900000E-01   1.00800           0
      5135 MEMB     46       OSM      H11T     HAL2     0.900000E-01   1.00800           0
      5136 MEMB     46       OSM      C12S     CTL2    -0.180000       12.0110           0
      5137 MEMB     46       OSM      H12S     HAL2     0.900000E-01   1.00800           0
      5138 MEMB     46       OSM      H12T     HAL2     0.900000E-01   1.00800           0
      5139 MEMB     46       OSM      C13S     CTL2    -0.180000       12.0110           0
      5140 MEMB     46       OSM      H13S     HAL2     0.900000E-01   1.00800           0
      5141 MEMB     46       OSM      H13T     HAL2     0.900000E-01   1.00800           0
      5142 MEMB     46       OSM      C14S     CTL2    -0.180000       12.0110           0
      5143 MEMB     46       OSM      H14S     HAL2     0.900000E-01   1.00800           0
      5144 MEMB     46       OSM      H14T     HAL2     0.900000E-01   1.00800           0
      5145 MEMB     46       OSM      C15S     CTL2    -0.180000       12.0110           0
      5146 MEMB     46       OSM      H15S     HAL2     0.900000E-01   1.00800           0
      5147 MEMB     46       OSM      H15T     HAL2     0.900000E-01   1.00800           0
      5148 MEMB     46       OSM      C16S     CTL2    -0.180000       12.0110           0
      5149 MEMB     46       OSM      H16S     HAL2     0.900000E-01   1.00800           0
      5150 MEMB     46       OSM      H16T     HAL2     0.900000E-01   1.00800           0
      5151 MEMB     46       OSM      C17S     CTL2    -0.180000       12.0110           0
      5152 MEMB     46       OSM      H17S     HAL2     0.900000E-01   1.00800           0
      5153 MEMB     46       OSM      H17T     HAL2     0.900000E-01   1.00800           0
      5154 MEMB     46       OSM      C18S     CTL3    -0.270000       12.0110           0
      5155 MEMB     46       OSM      H18S     HAL3     0.900000E-01   1.00800           0
      5156 MEMB     46       OSM      H18T     HAL3     0.900000E-01   1.00800           0
      5157 MEMB     46       OSM      H18U     HAL3     0.900000E-01   1.00800           0
      5158 MEMB     46       OSM      C1F      C        0.550000       12.0110           0
      5159 MEMB     46       OSM      OF       O       -0.600000       15.9994           0
      5160 MEMB     46       OSM      C2F      CTL2    -0.700000E-01   12.0110           0
      5161 MEMB     46       OSM      H2F      HAL2     0.600000E-01   1.00800           0
      5162 MEMB     46       OSM      H2G      HAL2     0.600000E-01   1.00800           0
      5163 MEMB     46       OSM      C3F      CTL2    -0.180000       12.0110           0
      5164 MEMB     46       OSM      H3F      HAL2     0.900000E-01   1.00800           0
      5165 MEMB     46       OSM      H3G      HAL2     0.900000E-01   1.00800           0
      5166 MEMB     46       OSM      C4F      CTL2    -0.180000       12.0110           0
      5167 MEMB     46       OSM      H4F      HAL2     0.900000E-01   1.00800           0
      5168 MEMB     46       OSM      H4G      HAL2     0.900000E-01   1.00800           0
      5169 MEMB     46       OSM      C5F      CTL2    -0.180000       12.0110           0
      5170 MEMB     46       OSM      H5F      HAL2     0.900000E-01   1.00800           0
      5171 MEMB     46       OSM      H5G      HAL2     0.900000E-01   1.00800           0
      5172 MEMB     46       OSM      C6F      CTL2    -0.180000       12.0110           0
      5173 MEMB     46       OSM      H6F      HAL2     0.900000E-01   1.00800           0
      5174 MEMB     46       OSM      H6G      HAL2     0.900000E-01   1.00800           0
      5175 MEMB     46       OSM      C7F      CTL2    -0.180000       12.0110           0
      5176 MEMB     46       OSM      H7F      HAL2     0.900000E-01   1.00800           0
      5177 MEMB     46       OSM      H7G      HAL2     0.900000E-01   1.00800           0
      5178 MEMB     46       OSM      C8F      CTL2    -0.180000       12.0110           0
      5179 MEMB     46       OSM      H8F      HAL2     0.900000E-01   1.00800           0
      5180 MEMB     46       OSM      H8G      HAL2     0.900000E-01   1.00800           0
      5181 MEMB     46       OSM      C9F      CEL1    -0.150000       12.0110           0
      5182 MEMB     46       OSM      H9F      HEL1     0.150000       1.00800           0
      5183 MEMB     46       OSM      C10F     CEL1    -0.150000       12.0110           0
      5184 MEMB     46       OSM      H10F     HEL1     0.150000       1.00800           0
      5185 MEMB     46       OSM      C11F     CTL2    -0.180000       12.0110           0
      5186 MEMB     46       OSM      H11F     HAL2     0.900000E-01   1.00800           0
      5187 MEMB     46       OSM      H11G     HAL2     0.900000E-01   1.00800           0
      5188 MEMB     46       OSM      C12F     CTL2    -0.180000       12.0110           0
      5189 MEMB     46       OSM      H12F     HAL2     0.900000E-01   1.00800           0
      5190 MEMB     46       OSM      H12G     HAL2     0.900000E-01   1.00800           0
      5191 MEMB     46       OSM      C13F     CTL2    -0.180000       12.0110           0
      5192 MEMB     46       OSM      H13F     HAL2     0.900000E-01   1.00800           0
      5193 MEMB     46       OSM      H13G     HAL2     0.900000E-01   1.00800           0
      5194 MEMB     46       OSM      C14F     CTL2    -0.180000       12.0110           0
      5195 MEMB     46       OSM      H14F     HAL2     0.900000E-01   1.00800           0
      5196 MEMB     46       OSM      H14G     HAL2     0.900000E-01   1.00800           0
      5197 MEMB     46       OSM      C15F     CTL2    -0.180000       12.0110           0
      5198 MEMB     46       OSM      H15F     HAL2     0.900000E-01   1.00800           0
      5199 MEMB     46       OSM      H15G     HAL2     0.900000E-01   1.00800           0
      5200 MEMB     46       OSM      C16F     CTL2    -0.180000       12.0110           0
      5201 MEMB     46       OSM      H16F     HAL2     0.900000E-01   1.00800           0
      5202 MEMB     46       OSM      H16G     HAL2     0.900000E-01   1.00800           0
      5203 MEMB     46       OSM      C17F     CTL2    -0.180000       12.0110           0
      5204 MEMB     46       OSM      H17F     HAL2     0.900000E-01   1.00800           0
      5205 MEMB     46       OSM      H17G     HAL2     0.900000E-01   1.00800           0
      5206 MEMB     46       OSM      C18F     CTL3    -0.270000       12.0110           0
      5207 MEMB     46       OSM      H18F     HAL3     0.900000E-01   1.00800           0
      5208 MEMB     46       OSM      H18G     HAL3     0.900000E-01   1.00800           0
      5209 MEMB     46       OSM      H18H     HAL3     0.900000E-01   1.00800           0
      5210 MEMB     47       OSM      N        NTL     -0.600000       14.0070           0
      5211 MEMB     47       OSM      C15      CTL5    -0.350000       12.0110           0
      5212 MEMB     47       OSM      H15A     HL       0.250000       1.00800           0
      5213 MEMB     47       OSM      H15B     HL       0.250000       1.00800           0
      5214 MEMB     47       OSM      H15C     HL       0.250000       1.00800           0
      5215 MEMB     47       OSM      C14      CTL5    -0.350000       12.0110           0
      5216 MEMB     47       OSM      H14A     HL       0.250000       1.00800           0
      5217 MEMB     47       OSM      H14B     HL       0.250000       1.00800           0
      5218 MEMB     47       OSM      H14C     HL       0.250000       1.00800           0
      5219 MEMB     47       OSM      C13      CTL5    -0.350000       12.0110           0
      5220 MEMB     47       OSM      H13A     HL       0.250000       1.00800           0
      5221 MEMB     47       OSM      H13B     HL       0.250000       1.00800           0
      5222 MEMB     47       OSM      H13C     HL       0.250000       1.00800           0
      5223 MEMB     47       OSM      C12      CTL2    -0.100000       12.0110           0
      5224 MEMB     47       OSM      H12A     HL       0.250000       1.00800           0
      5225 MEMB     47       OSM      H12B     HL       0.250000       1.00800           0
      5226 MEMB     47       OSM      C11      CTL2    -0.800000E-01   12.0110           0
      5227 MEMB     47       OSM      H11A     HAL2     0.900000E-01   1.00800           0
      5228 MEMB     47       OSM      H11B     HAL2     0.900000E-01   1.00800           0
      5229 MEMB     47       OSM      P        PL        1.50000       30.9740           0
      5230 MEMB     47       OSM      O13      O2L     -0.780000       15.9994           0
      5231 MEMB     47       OSM      O14      O2L     -0.780000       15.9994           0
      5232 MEMB     47       OSM      O11      OSLP    -0.570000       15.9994           0
      5233 MEMB     47       OSM      O12      OSLP    -0.570000       15.9994           0
      5234 MEMB     47       OSM      C1S      CTL2    -0.800000E-01   12.0110           0
      5235 MEMB     47       OSM      H1S      HAL2     0.900000E-01   1.00800           0
      5236 MEMB     47       OSM      H1T      HAL2     0.900000E-01   1.00800           0
      5237 MEMB     47       OSM      NF       NHL     -0.700000       14.0070           0
      5238 MEMB     47       OSM      HNF      H        0.350000       1.00800           0
      5239 MEMB     47       OSM      C2S      CTL1     0.300000       12.0110           0
      5240 MEMB     47       OSM      H2S      HAL1     0.500000E-01   1.00800           0
      5241 MEMB     47       OSM      C3S      CTO1     0.500000       12.0110           0
      5242 MEMB     47       OSM      H3S      HAL1    -0.110000       1.00800           0
      5243 MEMB     47       OSM      O3       OHL     -0.690000       15.9994           0
      5244 MEMB     47       OSM      HO3      HOL      0.300000       1.00800           0
      5245 MEMB     47       OSM      C4S      CEL3    -0.150000       12.0110           0
      5246 MEMB     47       OSM      H4S      HEL1     0.150000       1.00800           0
      5247 MEMB     47       OSM      C5S      CEL3    -0.150000       12.0110           0
      5248 MEMB     47       OSM      H5S      HEL1     0.150000       1.00800           0
      5249 MEMB     47       OSM      C6S      CTL2    -0.180000       12.0110           0
      5250 MEMB     47       OSM      H6S      HAL2     0.900000E-01   1.00800           0
      5251 MEMB     47       OSM      H6T      HAL2     0.900000E-01   1.00800           0
      5252 MEMB     47       OSM      C7S      CTL2    -0.180000       12.0110           0
      5253 MEMB     47       OSM      H7S      HAL2     0.900000E-01   1.00800           0
      5254 MEMB     47       OSM      H7T      HAL2     0.900000E-01   1.00800           0
      5255 MEMB     47       OSM      C8S      CTL2    -0.180000       12.0110           0
      5256 MEMB     47       OSM      H8S      HAL2     0.900000E-01   1.00800           0
      5257 MEMB     47       OSM      H8T      HAL2     0.900000E-01   1.00800           0
      5258 MEMB     47       OSM      C9S      CTL2    -0.180000       12.0110           0
      5259 MEMB     47       OSM      H9S      HAL2     0.900000E-01   1.00800           0
      5260 MEMB     47       OSM      H9T      HAL2     0.900000E-01   1.00800           0
      5261 MEMB     47       OSM      C10S     CTL2    -0.180000       12.0110           0
      5262 MEMB     47       OSM      H10S     HAL2     0.900000E-01   1.00800           0
      5263 MEMB     47       OSM      H10T     HAL2     0.900000E-01   1.00800           0
      5264 MEMB     47       OSM      C11S     CTL2    -0.180000       12.0110           0
      5265 MEMB     47       OSM      H11S     HAL2     0.900000E-01   1.00800           0
      5266 MEMB     47       OSM      H11T     HAL2     0.900000E-01   1.00800           0
      5267 MEMB     47       OSM      C12S     CTL2    -0.180000       12.0110           0
      5268 MEMB     47       OSM      H12S     HAL2     0.900000E-01   1.00800           0
      5269 MEMB     47       OSM      H12T     HAL2     0.900000E-01   1.00800           0
      5270 MEMB     47       OSM      C13S     CTL2    -0.180000       12.0110           0
      5271 MEMB     47       OSM      H13S     HAL2     0.900000E-01   1.00800           0
      5272 MEMB     47       OSM      H13T     HAL2     0.900000E-01   1.00800           0
      5273 MEMB     47       OSM      C14S     CTL2    -0.180000       12.0110           0
      5274 MEMB     47       OSM      H14S     HAL2     0.900000E-01   1.00800           0
      5275 MEMB     47       OSM      H14T     HAL2     0.900000E-01   1.00800           0
      5276 MEMB     47       OSM      C15S     CTL2    -0.180000       12.0110           0
      5277 MEMB     47       OSM      H15S     HAL2     0.900000E-01   1.00800           0
      5278 MEMB     47       OSM      H15T     HAL2     0.900000E-01   1.00800           0
      5279 MEMB     47       OSM      C16S     CTL2    -0.180000       12.0110           0
      5280 MEMB     47       OSM      H16S     HAL2     0.900000E-01   1.00800           0
      5281 MEMB     47       OSM      H16T     HAL2     0.900000E-01   1.00800           0
      5282 MEMB     47       OSM      C17S     CTL2    -0.180000       12.0110           0
      5283 MEMB     47       OSM      H17S     HAL2     0.900000E-01   1.00800           0
      5284 MEMB     47       OSM      H17T     HAL2     0.900000E-01   1.00800           0
      5285 MEMB     47       OSM      C18S     CTL3    -0.270000       12.0110           0
      5286 MEMB     47       OSM      H18S     HAL3     0.900000E-01   1.00800           0
      5287 MEMB     47       OSM      H18T     HAL3     0.900000E-01   1.00800           0
      5288 MEMB     47       OSM      H18U     HAL3     0.900000E-01   1.00800           0
      5289 MEMB     47       OSM      C1F      C        0.550000       12.0110           0
      5290 MEMB     47       OSM      OF       O       -0.600000       15.9994           0
      5291 MEMB     47       OSM      C2F      CTL2    -0.700000E-01   12.0110           0
      5292 MEMB     47       OSM      H2F      HAL2     0.600000E-01   1.00800           0
      5293 MEMB     47       OSM      H2G      HAL2     0.600000E-01   1.00800           0
      5294 MEMB     47       OSM      C3F      CTL2    -0.180000       12.0110           0
      5295 MEMB     47       OSM      H3F      HAL2     0.900000E-01   1.00800           0
      5296 MEMB     47       OSM      H3G      HAL2     0.900000E-01   1.00800           0
      5297 MEMB     47       OSM      C4F      CTL2    -0.180000       12.0110           0
      5298 MEMB     47       OSM      H4F      HAL2     0.900000E-01   1.00800           0
      5299 MEMB     47       OSM      H4G      HAL2     0.900000E-01   1.00800           0
      5300 MEMB     47       OSM      C5F      CTL2    -0.180000       12.0110           0
      5301 MEMB     47       OSM      H5F      HAL2     0.900000E-01   1.00800           0
      5302 MEMB     47       OSM      H5G      HAL2     0.900000E-01   1.00800           0
      5303 MEMB     47       OSM      C6F      CTL2    -0.180000       12.0110           0
      5304 MEMB     47       OSM      H6F      HAL2     0.900000E-01   1.00800           0
      5305 MEMB     47       OSM      H6G      HAL2     0.900000E-01   1.00800           0
      5306 MEMB     47       OSM      C7F      CTL2    -0.180000       12.0110           0
      5307 MEMB     47       OSM      H7F      HAL2     0.900000E-01   1.00800           0
      5308 MEMB     47       OSM      H7G      HAL2     0.900000E-01   1.00800           0
      5309 MEMB     47       OSM      C8F      CTL2    -0.180000       12.0110           0
      5310 MEMB     47       OSM      H8F      HAL2     0.900000E-01   1.00800           0
      5311 MEMB     47       OSM      H8G      HAL2     0.900000E-01   1.00800           0
      5312 MEMB     47       OSM      C9F      CEL1    -0.150000       12.0110           0
      5313 MEMB     47       OSM      H9F      HEL1     0.150000       1.00800           0
      5314 MEMB     47       OSM      C10F     CEL1    -0.150000       12.0110           0
      5315 MEMB     47       OSM      H10F     HEL1     0.150000       1.00800           0
      5316 MEMB     47       OSM      C11F     CTL2    -0.180000       12.0110           0
      5317 MEMB     47       OSM      H11F     HAL2     0.900000E-01   1.00800           0
      5318 MEMB     47       OSM      H11G     HAL2     0.900000E-01   1.00800           0
      5319 MEMB     47       OSM      C12F     CTL2    -0.180000       12.0110           0
      5320 MEMB     47       OSM      H12F     HAL2     0.900000E-01   1.00800           0
      5321 MEMB     47       OSM      H12G     HAL2     0.900000E-01   1.00800           0
      5322 MEMB     47       OSM      C13F     CTL2    -0.180000       12.0110           0
      5323 MEMB     47       OSM      H13F     HAL2     0.900000E-01   1.00800           0
      5324 MEMB     47       OSM      H13G     HAL2     0.900000E-01   1.00800           0
      5325 MEMB     47       OSM      C14F     CTL2    -0.180000       12.0110           0
      5326 MEMB     47       OSM      H14F     HAL2     0.900000E-01   1.00800           0
      5327 MEMB     47       OSM      H14G     HAL2     0.900000E-01   1.00800           0
      5328 MEMB     47       OSM      C15F     CTL2    -0.180000       12.0110           0
      5329 MEMB     47       OSM      H15F     HAL2     0.900000E-01   1.00800           0
      5330 MEMB     47       OSM      H15G     HAL2     0.900000E-01   1.00800           0
      5331 MEMB     47       OSM      C16F     CTL2    -0.180000       12.0110           0
      5332 MEMB     47       OSM      H16F     HAL2     0.900000E-01   1.00800           0
      5333 MEMB     47       OSM      H16G     HAL2     0.900000E-01   1.00800           0
      5334 MEMB     47       OSM      C17F     CTL2    -0.180000       12.0110           0
      5335 MEMB     47       OSM      H17F     HAL2     0.900000E-01   1.00800           0
      5336 MEMB     47       OSM      H17G     HAL2     0.900000E-01   1.00800           0
      5337 MEMB     47       OSM      C18F     CTL3    -0.270000       12.0110           0
      5338 MEMB     47       OSM      H18F     HAL3     0.900000E-01   1.00800           0
      5339 MEMB     47       OSM      H18G     HAL3     0.900000E-01   1.00800           0
      5340 MEMB     47       OSM      H18H     HAL3     0.900000E-01   1.00800           0
      5341 MEMB     48       CHL1     C3       CRL1     0.140000       12.0110           0
      5342 MEMB     48       CHL1     H3       HGA1     0.900000E-01   1.00800           0
      5343 MEMB     48       CHL1     O3       OHL     -0.660000       15.9994           0
      5344 MEMB     48       CHL1     H3'      HOL      0.430000       1.00800           0
      5345 MEMB     48       CHL1     C4       CRL2    -0.180000       12.0110           0
      5346 MEMB     48       CHL1     H4A      HGA2     0.900000E-01   1.00800           0
      5347 MEMB     48       CHL1     H4B      HGA2     0.900000E-01   1.00800           0
      5348 MEMB     48       CHL1     C5       CEL1      0.00000       12.0110           0
      5349 MEMB     48       CHL1     C6       CEL1    -0.150000       12.0110           0
      5350 MEMB     48       CHL1     H6       HEL1     0.150000       1.00800           0
      5351 MEMB     48       CHL1     C7       CRL2    -0.180000       12.0110           0
      5352 MEMB     48       CHL1     H7A      HGA2     0.900000E-01   1.00800           0
      5353 MEMB     48       CHL1     H7B      HGA2     0.900000E-01   1.00800           0
      5354 MEMB     48       CHL1     C8       CRL1    -0.900000E-01   12.0110           0
      5355 MEMB     48       CHL1     H8       HGA1     0.900000E-01   1.00800           0
      5356 MEMB     48       CHL1     C14      CRL1    -0.900000E-01   12.0110           0
      5357 MEMB     48       CHL1     H14      HGA1     0.900000E-01   1.00800           0
      5358 MEMB     48       CHL1     C15      CRL2    -0.180000       12.0110           0
      5359 MEMB     48       CHL1     H15A     HGA2     0.900000E-01   1.00800           0
      5360 MEMB     48       CHL1     H15B     HGA2     0.900000E-01   1.00800           0
      5361 MEMB     48       CHL1     C16      CRL2    -0.180000       12.0110           0
      5362 MEMB     48       CHL1     H16A     HGA2     0.900000E-01   1.00800           0
      5363 MEMB     48       CHL1     H16B     HGA2     0.900000E-01   1.00800           0
      5364 MEMB     48       CHL1     C17      CRL1    -0.900000E-01   12.0110           0
      5365 MEMB     48       CHL1     H17      HGA1     0.900000E-01   1.00800           0
      5366 MEMB     48       CHL1     C13      CRL1      0.00000       12.0110           0
      5367 MEMB     48       CHL1     C18      CTL3    -0.270000       12.0110           0
      5368 MEMB     48       CHL1     H18A     HAL3     0.900000E-01   1.00800           0
      5369 MEMB     48       CHL1     H18B     HAL3     0.900000E-01   1.00800           0
      5370 MEMB     48       CHL1     H18C     HAL3     0.900000E-01   1.00800           0
      5371 MEMB     48       CHL1     C12      CRL2    -0.180000       12.0110           0
      5372 MEMB     48       CHL1     H12A     HGA2     0.900000E-01   1.00800           0
      5373 MEMB     48       CHL1     H12B     HGA2     0.900000E-01   1.00800           0
      5374 MEMB     48       CHL1     C11      CRL2    -0.180000       12.0110           0
      5375 MEMB     48       CHL1     H11A     HGA2     0.900000E-01   1.00800           0
      5376 MEMB     48       CHL1     H11B     HGA2     0.900000E-01   1.00800           0
      5377 MEMB     48       CHL1     C9       CRL1    -0.900000E-01   12.0110           0
      5378 MEMB     48       CHL1     H9       HGA1     0.900000E-01   1.00800           0
      5379 MEMB     48       CHL1     C10      CRL1      0.00000       12.0110           0
      5380 MEMB     48       CHL1     C19      CTL3    -0.270000       12.0110           0
      5381 MEMB     48       CHL1     H19A     HAL3     0.900000E-01   1.00800           0
      5382 MEMB     48       CHL1     H19B     HAL3     0.900000E-01   1.00800           0
      5383 MEMB     48       CHL1     H19C     HAL3     0.900000E-01   1.00800           0
      5384 MEMB     48       CHL1     C1       CRL2    -0.180000       12.0110           0
      5385 MEMB     48       CHL1     H1A      HGA2     0.900000E-01   1.00800           0
      5386 MEMB     48       CHL1     H1B      HGA2     0.900000E-01   1.00800           0
      5387 MEMB     48       CHL1     C2       CRL2    -0.180000       12.0110           0
      5388 MEMB     48       CHL1     H2A      HGA2     0.900000E-01   1.00800           0
      5389 MEMB     48       CHL1     H2B      HGA2     0.900000E-01   1.00800           0
      5390 MEMB     48       CHL1     C20      CTL1    -0.900000E-01   12.0110           0
      5391 MEMB     48       CHL1     H20      HAL1     0.900000E-01   1.00800           0
      5392 MEMB     48       CHL1     C21      CTL3    -0.270000       12.0110           0
      5393 MEMB     48       CHL1     H21A     HAL3     0.900000E-01   1.00800           0
      5394 MEMB     48       CHL1     H21B     HAL3     0.900000E-01   1.00800           0
      5395 MEMB     48       CHL1     H21C     HAL3     0.900000E-01   1.00800           0
      5396 MEMB     48       CHL1     C22      CTL2    -0.180000       12.0110           0
      5397 MEMB     48       CHL1     H22A     HAL2     0.900000E-01   1.00800           0
      5398 MEMB     48       CHL1     H22B     HAL2     0.900000E-01   1.00800           0
      5399 MEMB     48       CHL1     C23      CTL2    -0.180000       12.0110           0
      5400 MEMB     48       CHL1     H23A     HAL2     0.900000E-01   1.00800           0
      5401 MEMB     48       CHL1     H23B     HAL2     0.900000E-01   1.00800           0
      5402 MEMB     48       CHL1     C24      CTL2    -0.180000       12.0110           0
      5403 MEMB     48       CHL1     H24A     HAL2     0.900000E-01   1.00800           0
      5404 MEMB     48       CHL1     H24B     HAL2     0.900000E-01   1.00800           0
      5405 MEMB     48       CHL1     C25      CTL1    -0.900000E-01   12.0110           0
      5406 MEMB     48       CHL1     H25      HAL1     0.900000E-01   1.00800           0
      5407 MEMB     48       CHL1     C26      CTL3    -0.270000       12.0110           0
      5408 MEMB     48       CHL1     H26A     HAL3     0.900000E-01   1.00800           0
      5409 MEMB     48       CHL1     H26B     HAL3     0.900000E-01   1.00800           0
      5410 MEMB     48       CHL1     H26C     HAL3     0.900000E-01   1.00800           0
      5411 MEMB     48       CHL1     C27      CTL3    -0.270000       12.0110           0
      5412 MEMB     48       CHL1     H27A     HAL3     0.900000E-01   1.00800           0
      5413 MEMB     48       CHL1     H27B     HAL3     0.900000E-01   1.00800           0
      5414 MEMB     48       CHL1     H27C     HAL3     0.900000E-01   1.00800           0
      5415 MEMB     49       SOPE     N        NH3L    -0.300000       14.0070           0
      5416 MEMB     49       SOPE     HN1      HCL      0.330000       1.00800           0
      5417 MEMB     49       SOPE     HN2      HCL      0.330000       1.00800           0
      5418 MEMB     49       SOPE     HN3      HCL      0.330000       1.00800           0
      5419 MEMB     49       SOPE     C12      CTL2     0.130000       12.0110           0
      5420 MEMB     49       SOPE     H12A     HAL2     0.900000E-01   1.00800           0
      5421 MEMB     49       SOPE     H12B     HAL2     0.900000E-01   1.00800           0
      5422 MEMB     49       SOPE     C11      CTL2    -0.800000E-01   12.0110           0
      5423 MEMB     49       SOPE     H11A     HAL2     0.900000E-01   1.00800           0
      5424 MEMB     49       SOPE     H11B     HAL2     0.900000E-01   1.00800           0
      5425 MEMB     49       SOPE     P        PL        1.50000       30.9740           0
      5426 MEMB     49       SOPE     O13      O2L     -0.780000       15.9994           0
      5427 MEMB     49       SOPE     O14      O2L     -0.780000       15.9994           0
      5428 MEMB     49       SOPE     O12      OSLP    -0.570000       15.9994           0
      5429 MEMB     49       SOPE     O11      OSLP    -0.570000       15.9994           0
      5430 MEMB     49       SOPE     C1       CTL2    -0.800000E-01   12.0110           0
      5431 MEMB     49       SOPE     HA       HAL2     0.900000E-01   1.00800           0
      5432 MEMB     49       SOPE     HB       HAL2     0.900000E-01   1.00800           0
      5433 MEMB     49       SOPE     C2       CTL1     0.170000       12.0110           0
      5434 MEMB     49       SOPE     HS       HAL1     0.900000E-01   1.00800           0
      5435 MEMB     49       SOPE     O21      OSL     -0.490000       15.9994           0
      5436 MEMB     49       SOPE     C21      CL       0.900000       12.0110           0
      5437 MEMB     49       SOPE     O22      OBL     -0.630000       15.9994           0
      5438 MEMB     49       SOPE     C22      CTL2    -0.220000       12.0110           0
      5439 MEMB     49       SOPE     H2R      HAL2     0.900000E-01   1.00800           0
      5440 MEMB     49       SOPE     H2S      HAL2     0.900000E-01   1.00800           0
      5441 MEMB     49       SOPE     C3       CTL2     0.800000E-01   12.0110           0
      5442 MEMB     49       SOPE     HX       HAL2     0.900000E-01   1.00800           0
      5443 MEMB     49       SOPE     HY       HAL2     0.900000E-01   1.00800           0
      5444 MEMB     49       SOPE     O31      OSL     -0.490000       15.9994           0
      5445 MEMB     49       SOPE     C31      CL       0.900000       12.0110           0
      5446 MEMB     49       SOPE     O32      OBL     -0.630000       15.9994           0
      5447 MEMB     49       SOPE     C32      CTL2    -0.220000       12.0110           0
      5448 MEMB     49       SOPE     H2X      HAL2     0.900000E-01   1.00800           0
      5449 MEMB     49       SOPE     H2Y      HAL2     0.900000E-01   1.00800           0
      5450 MEMB     49       SOPE     C23      CTL2    -0.180000       12.0110           0
      5451 MEMB     49       SOPE     H3R      HAL2     0.900000E-01   1.00800           0
      5452 MEMB     49       SOPE     H3S      HAL2     0.900000E-01   1.00800           0
      5453 MEMB     49       SOPE     C24      CTL2    -0.180000       12.0110           0
      5454 MEMB     49       SOPE     H4R      HAL2     0.900000E-01   1.00800           0
      5455 MEMB     49       SOPE     H4S      HAL2     0.900000E-01   1.00800           0
      5456 MEMB     49       SOPE     C25      CTL2    -0.180000       12.0110           0
      5457 MEMB     49       SOPE     H5R      HAL2     0.900000E-01   1.00800           0
      5458 MEMB     49       SOPE     H5S      HAL2     0.900000E-01   1.00800           0
      5459 MEMB     49       SOPE     C26      CTL2    -0.180000       12.0110           0
      5460 MEMB     49       SOPE     H6R      HAL2     0.900000E-01   1.00800           0
      5461 MEMB     49       SOPE     H6S      HAL2     0.900000E-01   1.00800           0
      5462 MEMB     49       SOPE     C27      CTL2    -0.180000       12.0110           0
      5463 MEMB     49       SOPE     H7R      HAL2     0.900000E-01   1.00800           0
      5464 MEMB     49       SOPE     H7S      HAL2     0.900000E-01   1.00800           0
      5465 MEMB     49       SOPE     C28      CTL2    -0.180000       12.0110           0
      5466 MEMB     49       SOPE     H8R      HAL2     0.900000E-01   1.00800           0
      5467 MEMB     49       SOPE     H8S      HAL2     0.900000E-01   1.00800           0
      5468 MEMB     49       SOPE     C29      CEL1    -0.150000       12.0110           0
      5469 MEMB     49       SOPE     H91      HEL1     0.150000       1.00800           0
      5470 MEMB     49       SOPE     C210     CEL1    -0.150000       12.0110           0
      5471 MEMB     49       SOPE     H101     HEL1     0.150000       1.00800           0
      5472 MEMB     49       SOPE     C211     CTL2    -0.180000       12.0110           0
      5473 MEMB     49       SOPE     H11R     HAL2     0.900000E-01   1.00800           0
      5474 MEMB     49       SOPE     H11S     HAL2     0.900000E-01   1.00800           0
      5475 MEMB     49       SOPE     C212     CTL2    -0.180000       12.0110           0
      5476 MEMB     49       SOPE     H12R     HAL2     0.900000E-01   1.00800           0
      5477 MEMB     49       SOPE     H12S     HAL2     0.900000E-01   1.00800           0
      5478 MEMB     49       SOPE     C213     CTL2    -0.180000       12.0110           0
      5479 MEMB     49       SOPE     H13R     HAL2     0.900000E-01   1.00800           0
      5480 MEMB     49       SOPE     H13S     HAL2     0.900000E-01   1.00800           0
      5481 MEMB     49       SOPE     C214     CTL2    -0.180000       12.0110           0
      5482 MEMB     49       SOPE     H14R     HAL2     0.900000E-01   1.00800           0
      5483 MEMB     49       SOPE     H14S     HAL2     0.900000E-01   1.00800           0
      5484 MEMB     49       SOPE     C215     CTL2    -0.180000       12.0110           0
      5485 MEMB     49       SOPE     H15R     HAL2     0.900000E-01   1.00800           0
      5486 MEMB     49       SOPE     H15S     HAL2     0.900000E-01   1.00800           0
      5487 MEMB     49       SOPE     C216     CTL2    -0.180000       12.0110           0
      5488 MEMB     49       SOPE     H16R     HAL2     0.900000E-01   1.00800           0
      5489 MEMB     49       SOPE     H16S     HAL2     0.900000E-01   1.00800           0
      5490 MEMB     49       SOPE     C217     CTL2    -0.180000       12.0110           0
      5491 MEMB     49       SOPE     H17R     HAL2     0.900000E-01   1.00800           0
      5492 MEMB     49       SOPE     H17S     HAL2     0.900000E-01   1.00800           0
      5493 MEMB     49       SOPE     C218     CTL3    -0.270000       12.0110           0
      5494 MEMB     49       SOPE     H18R     HAL3     0.900000E-01   1.00800           0
      5495 MEMB     49       SOPE     H18S     HAL3     0.900000E-01   1.00800           0
      5496 MEMB     49       SOPE     H18T     HAL3     0.900000E-01   1.00800           0
      5497 MEMB     49       SOPE     C33      CTL2    -0.180000       12.0110           0
      5498 MEMB     49       SOPE     H3X      HAL2     0.900000E-01   1.00800           0
      5499 MEMB     49       SOPE     H3Y      HAL2     0.900000E-01   1.00800           0
      5500 MEMB     49       SOPE     C34      CTL2    -0.180000       12.0110           0
      5501 MEMB     49       SOPE     H4X      HAL2     0.900000E-01   1.00800           0
      5502 MEMB     49       SOPE     H4Y      HAL2     0.900000E-01   1.00800           0
      5503 MEMB     49       SOPE     C35      CTL2    -0.180000       12.0110           0
      5504 MEMB     49       SOPE     H5X      HAL2     0.900000E-01   1.00800           0
      5505 MEMB     49       SOPE     H5Y      HAL2     0.900000E-01   1.00800           0
      5506 MEMB     49       SOPE     C36      CTL2    -0.180000       12.0110           0
      5507 MEMB     49       SOPE     H6X      HAL2     0.900000E-01   1.00800           0
      5508 MEMB     49       SOPE     H6Y      HAL2     0.900000E-01   1.00800           0
      5509 MEMB     49       SOPE     C37      CTL2    -0.180000       12.0110           0
      5510 MEMB     49       SOPE     H7X      HAL2     0.900000E-01   1.00800           0
      5511 MEMB     49       SOPE     H7Y      HAL2     0.900000E-01   1.00800           0
      5512 MEMB     49       SOPE     C38      CTL2    -0.180000       12.0110           0
      5513 MEMB     49       SOPE     H8X      HAL2     0.900000E-01   1.00800           0
      5514 MEMB     49       SOPE     H8Y      HAL2     0.900000E-01   1.00800           0
      5515 MEMB     49       SOPE     C39      CTL2    -0.180000       12.0110           0
      5516 MEMB     49       SOPE     H9X      HAL2     0.900000E-01   1.00800           0
      5517 MEMB     49       SOPE     H9Y      HAL2     0.900000E-01   1.00800           0
      5518 MEMB     49       SOPE     C310     CTL2    -0.180000       12.0110           0
      5519 MEMB     49       SOPE     H10X     HAL2     0.900000E-01   1.00800           0
      5520 MEMB     49       SOPE     H10Y     HAL2     0.900000E-01   1.00800           0
      5521 MEMB     49       SOPE     C311     CTL2    -0.180000       12.0110           0
      5522 MEMB     49       SOPE     H11X     HAL2     0.900000E-01   1.00800           0
      5523 MEMB     49       SOPE     H11Y     HAL2     0.900000E-01   1.00800           0
      5524 MEMB     49       SOPE     C312     CTL2    -0.180000       12.0110           0
      5525 MEMB     49       SOPE     H12X     HAL2     0.900000E-01   1.00800           0
      5526 MEMB     49       SOPE     H12Y     HAL2     0.900000E-01   1.00800           0
      5527 MEMB     49       SOPE     C313     CTL2    -0.180000       12.0110           0
      5528 MEMB     49       SOPE     H13X     HAL2     0.900000E-01   1.00800           0
      5529 MEMB     49       SOPE     H13Y     HAL2     0.900000E-01   1.00800           0
      5530 MEMB     49       SOPE     C314     CTL2    -0.180000       12.0110           0
      5531 MEMB     49       SOPE     H14X     HAL2     0.900000E-01   1.00800           0
      5532 MEMB     49       SOPE     H14Y     HAL2     0.900000E-01   1.00800           0
      5533 MEMB     49       SOPE     C315     CTL2    -0.180000       12.0110           0
      5534 MEMB     49       SOPE     H15X     HAL2     0.900000E-01   1.00800           0
      5535 MEMB     49       SOPE     H15Y     HAL2     0.900000E-01   1.00800           0
      5536 MEMB     49       SOPE     C316     CTL2    -0.180000       12.0110           0
      5537 MEMB     49       SOPE     H16X     HAL2     0.900000E-01   1.00800           0
      5538 MEMB     49       SOPE     H16Y     HAL2     0.900000E-01   1.00800           0
      5539 MEMB     49       SOPE     C317     CTL2    -0.180000       12.0110           0
      5540 MEMB     49       SOPE     H17X     HAL2     0.900000E-01   1.00800           0
      5541 MEMB     49       SOPE     H17Y     HAL2     0.900000E-01   1.00800           0
      5542 MEMB     49       SOPE     C318     CTL3    -0.270000       12.0110           0
      5543 MEMB     49       SOPE     H18X     HAL3     0.900000E-01   1.00800           0
      5544 MEMB     49       SOPE     H18Y     HAL3     0.900000E-01   1.00800           0
      5545 MEMB     49       SOPE     H18Z     HAL3     0.900000E-01   1.00800           0
      5546 MEMB     50       CHL1     C3       CRL1     0.140000       12.0110           0
      5547 MEMB     50       CHL1     H3       HGA1     0.900000E-01   1.00800           0
      5548 MEMB     50       CHL1     O3       OHL     -0.660000       15.9994           0
      5549 MEMB     50       CHL1     H3'      HOL      0.430000       1.00800           0
      5550 MEMB     50       CHL1     C4       CRL2    -0.180000       12.0110           0
      5551 MEMB     50       CHL1     H4A      HGA2     0.900000E-01   1.00800           0
      5552 MEMB     50       CHL1     H4B      HGA2     0.900000E-01   1.00800           0
      5553 MEMB     50       CHL1     C5       CEL1      0.00000       12.0110           0
      5554 MEMB     50       CHL1     C6       CEL1    -0.150000       12.0110           0
      5555 MEMB     50       CHL1     H6       HEL1     0.150000       1.00800           0
      5556 MEMB     50       CHL1     C7       CRL2    -0.180000       12.0110           0
      5557 MEMB     50       CHL1     H7A      HGA2     0.900000E-01   1.00800           0
      5558 MEMB     50       CHL1     H7B      HGA2     0.900000E-01   1.00800           0
      5559 MEMB     50       CHL1     C8       CRL1    -0.900000E-01   12.0110           0
      5560 MEMB     50       CHL1     H8       HGA1     0.900000E-01   1.00800           0
      5561 MEMB     50       CHL1     C14      CRL1    -0.900000E-01   12.0110           0
      5562 MEMB     50       CHL1     H14      HGA1     0.900000E-01   1.00800           0
      5563 MEMB     50       CHL1     C15      CRL2    -0.180000       12.0110           0
      5564 MEMB     50       CHL1     H15A     HGA2     0.900000E-01   1.00800           0
      5565 MEMB     50       CHL1     H15B     HGA2     0.900000E-01   1.00800           0
      5566 MEMB     50       CHL1     C16      CRL2    -0.180000       12.0110           0
      5567 MEMB     50       CHL1     H16A     HGA2     0.900000E-01   1.00800           0
      5568 MEMB     50       CHL1     H16B     HGA2     0.900000E-01   1.00800           0
      5569 MEMB     50       CHL1     C17      CRL1    -0.900000E-01   12.0110           0
      5570 MEMB     50       CHL1     H17      HGA1     0.900000E-01   1.00800           0
      5571 MEMB     50       CHL1     C13      CRL1      0.00000       12.0110           0
      5572 MEMB     50       CHL1     C18      CTL3    -0.270000       12.0110           0
      5573 MEMB     50       CHL1     H18A     HAL3     0.900000E-01   1.00800           0
      5574 MEMB     50       CHL1     H18B     HAL3     0.900000E-01   1.00800           0
      5575 MEMB     50       CHL1     H18C     HAL3     0.900000E-01   1.00800           0
      5576 MEMB     50       CHL1     C12      CRL2    -0.180000       12.0110           0
      5577 MEMB     50       CHL1     H12A     HGA2     0.900000E-01   1.00800           0
      5578 MEMB     50       CHL1     H12B     HGA2     0.900000E-01   1.00800           0
      5579 MEMB     50       CHL1     C11      CRL2    -0.180000       12.0110           0
      5580 MEMB     50       CHL1     H11A     HGA2     0.900000E-01   1.00800           0
      5581 MEMB     50       CHL1     H11B     HGA2     0.900000E-01   1.00800           0
      5582 MEMB     50       CHL1     C9       CRL1    -0.900000E-01   12.0110           0
      5583 MEMB     50       CHL1     H9       HGA1     0.900000E-01   1.00800           0
      5584 MEMB     50       CHL1     C10      CRL1      0.00000       12.0110           0
      5585 MEMB     50       CHL1     C19      CTL3    -0.270000       12.0110           0
      5586 MEMB     50       CHL1     H19A     HAL3     0.900000E-01   1.00800           0
      5587 MEMB     50       CHL1     H19B     HAL3     0.900000E-01   1.00800           0
      5588 MEMB     50       CHL1     H19C     HAL3     0.900000E-01   1.00800           0
      5589 MEMB     50       CHL1     C1       CRL2    -0.180000       12.0110           0
      5590 MEMB     50       CHL1     H1A      HGA2     0.900000E-01   1.00800           0
      5591 MEMB     50       CHL1     H1B      HGA2     0.900000E-01   1.00800           0
      5592 MEMB     50       CHL1     C2       CRL2    -0.180000       12.0110           0
      5593 MEMB     50       CHL1     H2A      HGA2     0.900000E-01   1.00800           0
      5594 MEMB     50       CHL1     H2B      HGA2     0.900000E-01   1.00800           0
      5595 MEMB     50       CHL1     C20      CTL1    -0.900000E-01   12.0110           0
      5596 MEMB     50       CHL1     H20      HAL1     0.900000E-01   1.00800           0
      5597 MEMB     50       CHL1     C21      CTL3    -0.270000       12.0110           0
      5598 MEMB     50       CHL1     H21A     HAL3     0.900000E-01   1.00800           0
      5599 MEMB     50       CHL1     H21B     HAL3     0.900000E-01   1.00800           0
      5600 MEMB     50       CHL1     H21C     HAL3     0.900000E-01   1.00800           0
      5601 MEMB     50       CHL1     C22      CTL2    -0.180000       12.0110           0
      5602 MEMB     50       CHL1     H22A     HAL2     0.900000E-01   1.00800           0
      5603 MEMB     50       CHL1     H22B     HAL2     0.900000E-01   1.00800           0
      5604 MEMB     50       CHL1     C23      CTL2    -0.180000       12.0110           0
      5605 MEMB     50       CHL1     H23A     HAL2     0.900000E-01   1.00800           0
      5606 MEMB     50       CHL1     H23B     HAL2     0.900000E-01   1.00800           0
      5607 MEMB     50       CHL1     C24      CTL2    -0.180000       12.0110           0
      5608 MEMB     50       CHL1     H24A     HAL2     0.900000E-01   1.00800           0
      5609 MEMB     50       CHL1     H24B     HAL2     0.900000E-01   1.00800           0
      5610 MEMB     50       CHL1     C25      CTL1    -0.900000E-01   12.0110           0
      5611 MEMB     50       CHL1     H25      HAL1     0.900000E-01   1.00800           0
      5612 MEMB     50       CHL1     C26      CTL3    -0.270000       12.0110           0
      5613 MEMB     50       CHL1     H26A     HAL3     0.900000E-01   1.00800           0
      5614 MEMB     50       CHL1     H26B     HAL3     0.900000E-01   1.00800           0
      5615 MEMB     50       CHL1     H26C     HAL3     0.900000E-01   1.00800           0
      5616 MEMB     50       CHL1     C27      CTL3    -0.270000       12.0110           0
      5617 MEMB     50       CHL1     H27A     HAL3     0.900000E-01   1.00800           0
      5618 MEMB     50       CHL1     H27B     HAL3     0.900000E-01   1.00800           0
      5619 MEMB     50       CHL1     H27C     HAL3     0.900000E-01   1.00800           0
      5620 MEMB     51       SAPE     N        NH3L    -0.300000       14.0070           0
      5621 MEMB     51       SAPE     HN1      HCL      0.330000       1.00800           0
      5622 MEMB     51       SAPE     HN2      HCL      0.330000       1.00800           0
      5623 MEMB     51       SAPE     HN3      HCL      0.330000       1.00800           0
      5624 MEMB     51       SAPE     C12      CTL2     0.130000       12.0110           0
      5625 MEMB     51       SAPE     H12A     HAL2     0.900000E-01   1.00800           0
      5626 MEMB     51       SAPE     H12B     HAL2     0.900000E-01   1.00800           0
      5627 MEMB     51       SAPE     C11      CTL2    -0.800000E-01   12.0110           0
      5628 MEMB     51       SAPE     H11A     HAL2     0.900000E-01   1.00800           0
      5629 MEMB     51       SAPE     H11B     HAL2     0.900000E-01   1.00800           0
      5630 MEMB     51       SAPE     P        PL        1.50000       30.9740           0
      5631 MEMB     51       SAPE     O13      O2L     -0.780000       15.9994           0
      5632 MEMB     51       SAPE     O14      O2L     -0.780000       15.9994           0
      5633 MEMB     51       SAPE     O12      OSLP    -0.570000       15.9994           0
      5634 MEMB     51       SAPE     O11      OSLP    -0.570000       15.9994           0
      5635 MEMB     51       SAPE     C1       CTL2    -0.800000E-01   12.0110           0
      5636 MEMB     51       SAPE     HA       HAL2     0.900000E-01   1.00800           0
      5637 MEMB     51       SAPE     HB       HAL2     0.900000E-01   1.00800           0
      5638 MEMB     51       SAPE     C2       CTL1     0.170000       12.0110           0
      5639 MEMB     51       SAPE     HS       HAL1     0.900000E-01   1.00800           0
      5640 MEMB     51       SAPE     O21      OSL     -0.490000       15.9994           0
      5641 MEMB     51       SAPE     C21      CL       0.900000       12.0110           0
      5642 MEMB     51       SAPE     O22      OBL     -0.630000       15.9994           0
      5643 MEMB     51       SAPE     C22      CTL2    -0.220000       12.0110           0
      5644 MEMB     51       SAPE     H2R      HAL2     0.900000E-01   1.00800           0
      5645 MEMB     51       SAPE     H2S      HAL2     0.900000E-01   1.00800           0
      5646 MEMB     51       SAPE     C3       CTL2     0.800000E-01   12.0110           0
      5647 MEMB     51       SAPE     HX       HAL2     0.900000E-01   1.00800           0
      5648 MEMB     51       SAPE     HY       HAL2     0.900000E-01   1.00800           0
      5649 MEMB     51       SAPE     O31      OSL     -0.490000       15.9994           0
      5650 MEMB     51       SAPE     C31      CL       0.900000       12.0110           0
      5651 MEMB     51       SAPE     O32      OBL     -0.630000       15.9994           0
      5652 MEMB     51       SAPE     C32      CTL2    -0.220000       12.0110           0
      5653 MEMB     51       SAPE     H2X      HAL2     0.900000E-01   1.00800           0
      5654 MEMB     51       SAPE     H2Y      HAL2     0.900000E-01   1.00800           0
      5655 MEMB     51       SAPE     C23      CTL2    -0.180000       12.0110           0
      5656 MEMB     51       SAPE     H3R      HAL2     0.900000E-01   1.00800           0
      5657 MEMB     51       SAPE     H3S      HAL2     0.900000E-01   1.00800           0
      5658 MEMB     51       SAPE     C24      CTL2    -0.180000       12.0110           0
      5659 MEMB     51       SAPE     H4R      HAL2     0.900000E-01   1.00800           0
      5660 MEMB     51       SAPE     H4S      HAL2     0.900000E-01   1.00800           0
      5661 MEMB     51       SAPE     C25      CEL1    -0.150000       12.0110           0
      5662 MEMB     51       SAPE     H5R      HEL1     0.150000       1.00800           0
      5663 MEMB     51       SAPE     C26      CEL1    -0.150000       12.0110           0
      5664 MEMB     51       SAPE     H6R      HEL1     0.150000       1.00800           0
      5665 MEMB     51       SAPE     C27      CTL2    -0.180000       12.0110           0
      5666 MEMB     51       SAPE     H7R      HAL2     0.900000E-01   1.00800           0
      5667 MEMB     51       SAPE     H7S      HAL2     0.900000E-01   1.00800           0
      5668 MEMB     51       SAPE     C28      CEL1    -0.150000       12.0110           0
      5669 MEMB     51       SAPE     H8R      HEL1     0.150000       1.00800           0
      5670 MEMB     51       SAPE     C29      CEL1    -0.150000       12.0110           0
      5671 MEMB     51       SAPE     H9R      HEL1     0.150000       1.00800           0
      5672 MEMB     51       SAPE     C210     CTL2    -0.180000       12.0110           0
      5673 MEMB     51       SAPE     H10R     HAL2     0.900000E-01   1.00800           0
      5674 MEMB     51       SAPE     H10S     HAL2     0.900000E-01   1.00800           0
      5675 MEMB     51       SAPE     C211     CEL1    -0.150000       12.0110           0
      5676 MEMB     51       SAPE     H11R     HEL1     0.150000       1.00800           0
      5677 MEMB     51       SAPE     C212     CEL1    -0.150000       12.0110           0
      5678 MEMB     51       SAPE     H12R     HEL1     0.150000       1.00800           0
      5679 MEMB     51       SAPE     C213     CTL2    -0.180000       12.0110           0
      5680 MEMB     51       SAPE     H13R     HAL2     0.900000E-01   1.00800           0
      5681 MEMB     51       SAPE     H13S     HAL2     0.900000E-01   1.00800           0
      5682 MEMB     51       SAPE     C214     CEL1    -0.150000       12.0110           0
      5683 MEMB     51       SAPE     H14R     HEL1     0.150000       1.00800           0
      5684 MEMB     51       SAPE     C215     CEL1    -0.150000       12.0110           0
      5685 MEMB     51       SAPE     H15R     HEL1     0.150000       1.00800           0
      5686 MEMB     51       SAPE     C216     CTL2    -0.180000       12.0110           0
      5687 MEMB     51       SAPE     H16R     HAL2     0.900000E-01   1.00800           0
      5688 MEMB     51       SAPE     H16S     HAL2     0.900000E-01   1.00800           0
      5689 MEMB     51       SAPE     C217     CTL2    -0.180000       12.0110           0
      5690 MEMB     51       SAPE     H17R     HAL2     0.900000E-01   1.00800           0
      5691 MEMB     51       SAPE     H17S     HAL2     0.900000E-01   1.00800           0
      5692 MEMB     51       SAPE     C218     CTL2    -0.180000       12.0110           0
      5693 MEMB     51       SAPE     H18R     HAL2     0.900000E-01   1.00800           0
      5694 MEMB     51       SAPE     H18S     HAL2     0.900000E-01   1.00800           0
      5695 MEMB     51       SAPE     C219     CTL2    -0.180000       12.0110           0
      5696 MEMB     51       SAPE     H19R     HAL2     0.900000E-01   1.00800           0
      5697 MEMB     51       SAPE     H19S     HAL2     0.900000E-01   1.00800           0
      5698 MEMB     51       SAPE     C220     CTL3    -0.270000       12.0110           0
      5699 MEMB     51       SAPE     H20R     HAL3     0.900000E-01   1.00800           0
      5700 MEMB     51       SAPE     H20S     HAL3     0.900000E-01   1.00800           0
      5701 MEMB     51       SAPE     H20T     HAL3     0.900000E-01   1.00800           0
      5702 MEMB     51       SAPE     C33      CTL2    -0.180000       12.0110           0
      5703 MEMB     51       SAPE     H3X      HAL2     0.900000E-01   1.00800           0
      5704 MEMB     51       SAPE     H3Y      HAL2     0.900000E-01   1.00800           0
      5705 MEMB     51       SAPE     C34      CTL2    -0.180000       12.0110           0
      5706 MEMB     51       SAPE     H4X      HAL2     0.900000E-01   1.00800           0
      5707 MEMB     51       SAPE     H4Y      HAL2     0.900000E-01   1.00800           0
      5708 MEMB     51       SAPE     C35      CTL2    -0.180000       12.0110           0
      5709 MEMB     51       SAPE     H5X      HAL2     0.900000E-01   1.00800           0
      5710 MEMB     51       SAPE     H5Y      HAL2     0.900000E-01   1.00800           0
      5711 MEMB     51       SAPE     C36      CTL2    -0.180000       12.0110           0
      5712 MEMB     51       SAPE     H6X      HAL2     0.900000E-01   1.00800           0
      5713 MEMB     51       SAPE     H6Y      HAL2     0.900000E-01   1.00800           0
      5714 MEMB     51       SAPE     C37      CTL2    -0.180000       12.0110           0
      5715 MEMB     51       SAPE     H7X      HAL2     0.900000E-01   1.00800           0
      5716 MEMB     51       SAPE     H7Y      HAL2     0.900000E-01   1.00800           0
      5717 MEMB     51       SAPE     C38      CTL2    -0.180000       12.0110           0
      5718 MEMB     51       SAPE     H8X      HAL2     0.900000E-01   1.00800           0
      5719 MEMB     51       SAPE     H8Y      HAL2     0.900000E-01   1.00800           0
      5720 MEMB     51       SAPE     C39      CTL2    -0.180000       12.0110           0
      5721 MEMB     51       SAPE     H9X      HAL2     0.900000E-01   1.00800           0
      5722 MEMB     51       SAPE     H9Y      HAL2     0.900000E-01   1.00800           0
      5723 MEMB     51       SAPE     C310     CTL2    -0.180000       12.0110           0
      5724 MEMB     51       SAPE     H10X     HAL2     0.900000E-01   1.00800           0
      5725 MEMB     51       SAPE     H10Y     HAL2     0.900000E-01   1.00800           0
      5726 MEMB     51       SAPE     C311     CTL2    -0.180000       12.0110           0
      5727 MEMB     51       SAPE     H11X     HAL2     0.900000E-01   1.00800           0
      5728 MEMB     51       SAPE     H11Y     HAL2     0.900000E-01   1.00800           0
      5729 MEMB     51       SAPE     C312     CTL2    -0.180000       12.0110           0
      5730 MEMB     51       SAPE     H12X     HAL2     0.900000E-01   1.00800           0
      5731 MEMB     51       SAPE     H12Y     HAL2     0.900000E-01   1.00800           0
      5732 MEMB     51       SAPE     C313     CTL2    -0.180000       12.0110           0
      5733 MEMB     51       SAPE     H13X     HAL2     0.900000E-01   1.00800           0
      5734 MEMB     51       SAPE     H13Y     HAL2     0.900000E-01   1.00800           0
      5735 MEMB     51       SAPE     C314     CTL2    -0.180000       12.0110           0
      5736 MEMB     51       SAPE     H14X     HAL2     0.900000E-01   1.00800           0
      5737 MEMB     51       SAPE     H14Y     HAL2     0.900000E-01   1.00800           0
      5738 MEMB     51       SAPE     C315     CTL2    -0.180000       12.0110           0
      5739 MEMB     51       SAPE     H15X     HAL2     0.900000E-01   1.00800           0
      5740 MEMB     51       SAPE     H15Y     HAL2     0.900000E-01   1.00800           0
      5741 MEMB     51       SAPE     C316     CTL2    -0.180000       12.0110           0
      5742 MEMB     51       SAPE     H16X     HAL2     0.900000E-01   1.00800           0
      5743 MEMB     51       SAPE     H16Y     HAL2     0.900000E-01   1.00800           0
      5744 MEMB     51       SAPE     C317     CTL2    -0.180000       12.0110           0
      5745 MEMB     51       SAPE     H17X     HAL2     0.900000E-01   1.00800           0
      5746 MEMB     51       SAPE     H17Y     HAL2     0.900000E-01   1.00800           0
      5747 MEMB     51       SAPE     C318     CTL3    -0.270000       12.0110           0
      5748 MEMB     51       SAPE     H18X     HAL3     0.900000E-01   1.00800           0
      5749 MEMB     51       SAPE     H18Y     HAL3     0.900000E-01   1.00800           0
      5750 MEMB     51       SAPE     H18Z     HAL3     0.900000E-01   1.00800           0
      5751 MEMB     52       CHL1     C3       CRL1     0.140000       12.0110           0
      5752 MEMB     52       CHL1     H3       HGA1     0.900000E-01   1.00800           0
      5753 MEMB     52       CHL1     O3       OHL     -0.660000       15.9994           0
      5754 MEMB     52       CHL1     H3'      HOL      0.430000       1.00800           0
      5755 MEMB     52       CHL1     C4       CRL2    -0.180000       12.0110           0
      5756 MEMB     52       CHL1     H4A      HGA2     0.900000E-01   1.00800           0
      5757 MEMB     52       CHL1     H4B      HGA2     0.900000E-01   1.00800           0
      5758 MEMB     52       CHL1     C5       CEL1      0.00000       12.0110           0
      5759 MEMB     52       CHL1     C6       CEL1    -0.150000       12.0110           0
      5760 MEMB     52       CHL1     H6       HEL1     0.150000       1.00800           0
      5761 MEMB     52       CHL1     C7       CRL2    -0.180000       12.0110           0
      5762 MEMB     52       CHL1     H7A      HGA2     0.900000E-01   1.00800           0
      5763 MEMB     52       CHL1     H7B      HGA2     0.900000E-01   1.00800           0
      5764 MEMB     52       CHL1     C8       CRL1    -0.900000E-01   12.0110           0
      5765 MEMB     52       CHL1     H8       HGA1     0.900000E-01   1.00800           0
      5766 MEMB     52       CHL1     C14      CRL1    -0.900000E-01   12.0110           0
      5767 MEMB     52       CHL1     H14      HGA1     0.900000E-01   1.00800           0
      5768 MEMB     52       CHL1     C15      CRL2    -0.180000       12.0110           0
      5769 MEMB     52       CHL1     H15A     HGA2     0.900000E-01   1.00800           0
      5770 MEMB     52       CHL1     H15B     HGA2     0.900000E-01   1.00800           0
      5771 MEMB     52       CHL1     C16      CRL2    -0.180000       12.0110           0
      5772 MEMB     52       CHL1     H16A     HGA2     0.900000E-01   1.00800           0
      5773 MEMB     52       CHL1     H16B     HGA2     0.900000E-01   1.00800           0
      5774 MEMB     52       CHL1     C17      CRL1    -0.900000E-01   12.0110           0
      5775 MEMB     52       CHL1     H17      HGA1     0.900000E-01   1.00800           0
      5776 MEMB     52       CHL1     C13      CRL1      0.00000       12.0110           0
      5777 MEMB     52       CHL1     C18      CTL3    -0.270000       12.0110           0
      5778 MEMB     52       CHL1     H18A     HAL3     0.900000E-01   1.00800           0
      5779 MEMB     52       CHL1     H18B     HAL3     0.900000E-01   1.00800           0
      5780 MEMB     52       CHL1     H18C     HAL3     0.900000E-01   1.00800           0
      5781 MEMB     52       CHL1     C12      CRL2    -0.180000       12.0110           0
      5782 MEMB     52       CHL1     H12A     HGA2     0.900000E-01   1.00800           0
      5783 MEMB     52       CHL1     H12B     HGA2     0.900000E-01   1.00800           0
      5784 MEMB     52       CHL1     C11      CRL2    -0.180000       12.0110           0
      5785 MEMB     52       CHL1     H11A     HGA2     0.900000E-01   1.00800           0
      5786 MEMB     52       CHL1     H11B     HGA2     0.900000E-01   1.00800           0
      5787 MEMB     52       CHL1     C9       CRL1    -0.900000E-01   12.0110           0
      5788 MEMB     52       CHL1     H9       HGA1     0.900000E-01   1.00800           0
      5789 MEMB     52       CHL1     C10      CRL1      0.00000       12.0110           0
      5790 MEMB     52       CHL1     C19      CTL3    -0.270000       12.0110           0
      5791 MEMB     52       CHL1     H19A     HAL3     0.900000E-01   1.00800           0
      5792 MEMB     52       CHL1     H19B     HAL3     0.900000E-01   1.00800           0
      5793 MEMB     52       CHL1     H19C     HAL3     0.900000E-01   1.00800           0
      5794 MEMB     52       CHL1     C1       CRL2    -0.180000       12.0110           0
      5795 MEMB     52       CHL1     H1A      HGA2     0.900000E-01   1.00800           0
      5796 MEMB     52       CHL1     H1B      HGA2     0.900000E-01   1.00800           0
      5797 MEMB     52       CHL1     C2       CRL2    -0.180000       12.0110           0
      5798 MEMB     52       CHL1     H2A      HGA2     0.900000E-01   1.00800           0
      5799 MEMB     52       CHL1     H2B      HGA2     0.900000E-01   1.00800           0
      5800 MEMB     52       CHL1     C20      CTL1    -0.900000E-01   12.0110           0
      5801 MEMB     52       CHL1     H20      HAL1     0.900000E-01   1.00800           0
      5802 MEMB     52       CHL1     C21      CTL3    -0.270000       12.0110           0
      5803 MEMB     52       CHL1     H21A     HAL3     0.900000E-01   1.00800           0
      5804 MEMB     52       CHL1     H21B     HAL3     0.900000E-01   1.00800           0
      5805 MEMB     52       CHL1     H21C     HAL3     0.900000E-01   1.00800           0
      5806 MEMB     52       CHL1     C22      CTL2    -0.180000       12.0110           0
      5807 MEMB     52       CHL1     H22A     HAL2     0.900000E-01   1.00800           0
      5808 MEMB     52       CHL1     H22B     HAL2     0.900000E-01   1.00800           0
      5809 MEMB     52       CHL1     C23      CTL2    -0.180000       12.0110           0
      5810 MEMB     52       CHL1     H23A     HAL2     0.900000E-01   1.00800           0
      5811 MEMB     52       CHL1     H23B     HAL2     0.900000E-01   1.00800           0
      5812 MEMB     52       CHL1     C24      CTL2    -0.180000       12.0110           0
      5813 MEMB     52       CHL1     H24A     HAL2     0.900000E-01   1.00800           0
      5814 MEMB     52       CHL1     H24B     HAL2     0.900000E-01   1.00800           0
      5815 MEMB     52       CHL1     C25      CTL1    -0.900000E-01   12.0110           0
      5816 MEMB     52       CHL1     H25      HAL1     0.900000E-01   1.00800           0
      5817 MEMB     52       CHL1     C26      CTL3    -0.270000       12.0110           0
      5818 MEMB     52       CHL1     H26A     HAL3     0.900000E-01   1.00800           0
      5819 MEMB     52       CHL1     H26B     HAL3     0.900000E-01   1.00800           0
      5820 MEMB     52       CHL1     H26C     HAL3     0.900000E-01   1.00800           0
      5821 MEMB     52       CHL1     C27      CTL3    -0.270000       12.0110           0
      5822 MEMB     52       CHL1     H27A     HAL3     0.900000E-01   1.00800           0
      5823 MEMB     52       CHL1     H27B     HAL3     0.900000E-01   1.00800           0
      5824 MEMB     52       CHL1     H27C     HAL3     0.900000E-01   1.00800           0
      5825 MEMB     53       OSM      N        NTL     -0.600000       14.0070           0
      5826 MEMB     53       OSM      C15      CTL5    -0.350000       12.0110           0
      5827 MEMB     53       OSM      H15A     HL       0.250000       1.00800           0
      5828 MEMB     53       OSM      H15B     HL       0.250000       1.00800           0
      5829 MEMB     53       OSM      H15C     HL       0.250000       1.00800           0
      5830 MEMB     53       OSM      C14      CTL5    -0.350000       12.0110           0
      5831 MEMB     53       OSM      H14A     HL       0.250000       1.00800           0
      5832 MEMB     53       OSM      H14B     HL       0.250000       1.00800           0
      5833 MEMB     53       OSM      H14C     HL       0.250000       1.00800           0
      5834 MEMB     53       OSM      C13      CTL5    -0.350000       12.0110           0
      5835 MEMB     53       OSM      H13A     HL       0.250000       1.00800           0
      5836 MEMB     53       OSM      H13B     HL       0.250000       1.00800           0
      5837 MEMB     53       OSM      H13C     HL       0.250000       1.00800           0
      5838 MEMB     53       OSM      C12      CTL2    -0.100000       12.0110           0
      5839 MEMB     53       OSM      H12A     HL       0.250000       1.00800           0
      5840 MEMB     53       OSM      H12B     HL       0.250000       1.00800           0
      5841 MEMB     53       OSM      C11      CTL2    -0.800000E-01   12.0110           0
      5842 MEMB     53       OSM      H11A     HAL2     0.900000E-01   1.00800           0
      5843 MEMB     53       OSM      H11B     HAL2     0.900000E-01   1.00800           0
      5844 MEMB     53       OSM      P        PL        1.50000       30.9740           0
      5845 MEMB     53       OSM      O13      O2L     -0.780000       15.9994           0
      5846 MEMB     53       OSM      O14      O2L     -0.780000       15.9994           0
      5847 MEMB     53       OSM      O11      OSLP    -0.570000       15.9994           0
      5848 MEMB     53       OSM      O12      OSLP    -0.570000       15.9994           0
      5849 MEMB     53       OSM      C1S      CTL2    -0.800000E-01   12.0110           0
      5850 MEMB     53       OSM      H1S      HAL2     0.900000E-01   1.00800           0
      5851 MEMB     53       OSM      H1T      HAL2     0.900000E-01   1.00800           0
      5852 MEMB     53       OSM      NF       NHL     -0.700000       14.0070           0
      5853 MEMB     53       OSM      HNF      H        0.350000       1.00800           0
      5854 MEMB     53       OSM      C2S      CTL1     0.300000       12.0110           0
      5855 MEMB     53       OSM      H2S      HAL1     0.500000E-01   1.00800           0
      5856 MEMB     53       OSM      C3S      CTO1     0.500000       12.0110           0
      5857 MEMB     53       OSM      H3S      HAL1    -0.110000       1.00800           0
      5858 MEMB     53       OSM      O3       OHL     -0.690000       15.9994           0
      5859 MEMB     53       OSM      HO3      HOL      0.300000       1.00800           0
      5860 MEMB     53       OSM      C4S      CEL3    -0.150000       12.0110           0
      5861 MEMB     53       OSM      H4S      HEL1     0.150000       1.00800           0
      5862 MEMB     53       OSM      C5S      CEL3    -0.150000       12.0110           0
      5863 MEMB     53       OSM      H5S      HEL1     0.150000       1.00800           0
      5864 MEMB     53       OSM      C6S      CTL2    -0.180000       12.0110           0
      5865 MEMB     53       OSM      H6S      HAL2     0.900000E-01   1.00800           0
      5866 MEMB     53       OSM      H6T      HAL2     0.900000E-01   1.00800           0
      5867 MEMB     53       OSM      C7S      CTL2    -0.180000       12.0110           0
      5868 MEMB     53       OSM      H7S      HAL2     0.900000E-01   1.00800           0
      5869 MEMB     53       OSM      H7T      HAL2     0.900000E-01   1.00800           0
      5870 MEMB     53       OSM      C8S      CTL2    -0.180000       12.0110           0
      5871 MEMB     53       OSM      H8S      HAL2     0.900000E-01   1.00800           0
      5872 MEMB     53       OSM      H8T      HAL2     0.900000E-01   1.00800           0
      5873 MEMB     53       OSM      C9S      CTL2    -0.180000       12.0110           0
      5874 MEMB     53       OSM      H9S      HAL2     0.900000E-01   1.00800           0
      5875 MEMB     53       OSM      H9T      HAL2     0.900000E-01   1.00800           0
      5876 MEMB     53       OSM      C10S     CTL2    -0.180000       12.0110           0
      5877 MEMB     53       OSM      H10S     HAL2     0.900000E-01   1.00800           0
      5878 MEMB     53       OSM      H10T     HAL2     0.900000E-01   1.00800           0
      5879 MEMB     53       OSM      C11S     CTL2    -0.180000       12.0110           0
      5880 MEMB     53       OSM      H11S     HAL2     0.900000E-01   1.00800           0
      5881 MEMB     53       OSM      H11T     HAL2     0.900000E-01   1.00800           0
      5882 MEMB     53       OSM      C12S     CTL2    -0.180000       12.0110           0
      5883 MEMB     53       OSM      H12S     HAL2     0.900000E-01   1.00800           0
      5884 MEMB     53       OSM      H12T     HAL2     0.900000E-01   1.00800           0
      5885 MEMB     53       OSM      C13S     CTL2    -0.180000       12.0110           0
      5886 MEMB     53       OSM      H13S     HAL2     0.900000E-01   1.00800           0
      5887 MEMB     53       OSM      H13T     HAL2     0.900000E-01   1.00800           0
      5888 MEMB     53       OSM      C14S     CTL2    -0.180000       12.0110           0
      5889 MEMB     53       OSM      H14S     HAL2     0.900000E-01   1.00800           0
      5890 MEMB     53       OSM      H14T     HAL2     0.900000E-01   1.00800           0
      5891 MEMB     53       OSM      C15S     CTL2    -0.180000       12.0110           0
      5892 MEMB     53       OSM      H15S     HAL2     0.900000E-01   1.00800           0
      5893 MEMB     53       OSM      H15T     HAL2     0.900000E-01   1.00800           0
      5894 MEMB     53       OSM      C16S     CTL2    -0.180000       12.0110           0
      5895 MEMB     53       OSM      H16S     HAL2     0.900000E-01   1.00800           0
      5896 MEMB     53       OSM      H16T     HAL2     0.900000E-01   1.00800           0
      5897 MEMB     53       OSM      C17S     CTL2    -0.180000       12.0110           0
      5898 MEMB     53       OSM      H17S     HAL2     0.900000E-01   1.00800           0
      5899 MEMB     53       OSM      H17T     HAL2     0.900000E-01   1.00800           0
      5900 MEMB     53       OSM      C18S     CTL3    -0.270000       12.0110           0
      5901 MEMB     53       OSM      H18S     HAL3     0.900000E-01   1.00800           0
      5902 MEMB     53       OSM      H18T     HAL3     0.900000E-01   1.00800           0
      5903 MEMB     53       OSM      H18U     HAL3     0.900000E-01   1.00800           0
      5904 MEMB     53       OSM      C1F      C        0.550000       12.0110           0
      5905 MEMB     53       OSM      OF       O       -0.600000       15.9994           0
      5906 MEMB     53       OSM      C2F      CTL2    -0.700000E-01   12.0110           0
      5907 MEMB     53       OSM      H2F      HAL2     0.600000E-01   1.00800           0
      5908 MEMB     53       OSM      H2G      HAL2     0.600000E-01   1.00800           0
      5909 MEMB     53       OSM      C3F      CTL2    -0.180000       12.0110           0
      5910 MEMB     53       OSM      H3F      HAL2     0.900000E-01   1.00800           0
      5911 MEMB     53       OSM      H3G      HAL2     0.900000E-01   1.00800           0
      5912 MEMB     53       OSM      C4F      CTL2    -0.180000       12.0110           0
      5913 MEMB     53       OSM      H4F      HAL2     0.900000E-01   1.00800           0
      5914 MEMB     53       OSM      H4G      HAL2     0.900000E-01   1.00800           0
      5915 MEMB     53       OSM      C5F      CTL2    -0.180000       12.0110           0
      5916 MEMB     53       OSM      H5F      HAL2     0.900000E-01   1.00800           0
      5917 MEMB     53       OSM      H5G      HAL2     0.900000E-01   1.00800           0
      5918 MEMB     53       OSM      C6F      CTL2    -0.180000       12.0110           0
      5919 MEMB     53       OSM      H6F      HAL2     0.900000E-01   1.00800           0
      5920 MEMB     53       OSM      H6G      HAL2     0.900000E-01   1.00800           0
      5921 MEMB     53       OSM      C7F      CTL2    -0.180000       12.0110           0
      5922 MEMB     53       OSM      H7F      HAL2     0.900000E-01   1.00800           0
      5923 MEMB     53       OSM      H7G      HAL2     0.900000E-01   1.00800           0
      5924 MEMB     53       OSM      C8F      CTL2    -0.180000       12.0110           0
      5925 MEMB     53       OSM      H8F      HAL2     0.900000E-01   1.00800           0
      5926 MEMB     53       OSM      H8G      HAL2     0.900000E-01   1.00800           0
      5927 MEMB     53       OSM      C9F      CEL1    -0.150000       12.0110           0
      5928 MEMB     53       OSM      H9F      HEL1     0.150000       1.00800           0
      5929 MEMB     53       OSM      C10F     CEL1    -0.150000       12.0110           0
      5930 MEMB     53       OSM      H10F     HEL1     0.150000       1.00800           0
      5931 MEMB     53       OSM      C11F     CTL2    -0.180000       12.0110           0
      5932 MEMB     53       OSM      H11F     HAL2     0.900000E-01   1.00800           0
      5933 MEMB     53       OSM      H11G     HAL2     0.900000E-01   1.00800           0
      5934 MEMB     53       OSM      C12F     CTL2    -0.180000       12.0110           0
      5935 MEMB     53       OSM      H12F     HAL2     0.900000E-01   1.00800           0
      5936 MEMB     53       OSM      H12G     HAL2     0.900000E-01   1.00800           0
      5937 MEMB     53       OSM      C13F     CTL2    -0.180000       12.0110           0
      5938 MEMB     53       OSM      H13F     HAL2     0.900000E-01   1.00800           0
      5939 MEMB     53       OSM      H13G     HAL2     0.900000E-01   1.00800           0
      5940 MEMB     53       OSM      C14F     CTL2    -0.180000       12.0110           0
      5941 MEMB     53       OSM      H14F     HAL2     0.900000E-01   1.00800           0
      5942 MEMB     53       OSM      H14G     HAL2     0.900000E-01   1.00800           0
      5943 MEMB     53       OSM      C15F     CTL2    -0.180000       12.0110           0
      5944 MEMB     53       OSM      H15F     HAL2     0.900000E-01   1.00800           0
      5945 MEMB     53       OSM      H15G     HAL2     0.900000E-01   1.00800           0
      5946 MEMB     53       OSM      C16F     CTL2    -0.180000       12.0110           0
      5947 MEMB     53       OSM      H16F     HAL2     0.900000E-01   1.00800           0
      5948 MEMB     53       OSM      H16G     HAL2     0.900000E-01   1.00800           0
      5949 MEMB     53       OSM      C17F     CTL2    -0.180000       12.0110           0
      5950 MEMB     53       OSM      H17F     HAL2     0.900000E-01   1.00800           0
      5951 MEMB     53       OSM      H17G     HAL2     0.900000E-01   1.00800           0
      5952 MEMB     53       OSM      C18F     CTL3    -0.270000       12.0110           0
      5953 MEMB     53       OSM      H18F     HAL3     0.900000E-01   1.00800           0
      5954 MEMB     53       OSM      H18G     HAL3     0.900000E-01   1.00800           0
      5955 MEMB     53       OSM      H18H     HAL3     0.900000E-01   1.00800           0
      5956 MEMB     54       OSM      N        NTL     -0.600000       14.0070           0
      5957 MEMB     54       OSM      C15      CTL5    -0.350000       12.0110           0
      5958 MEMB     54       OSM      H15A     HL       0.250000       1.00800           0
      5959 MEMB     54       OSM      H15B     HL       0.250000       1.00800           0
      5960 MEMB     54       OSM      H15C     HL       0.250000       1.00800           0
      5961 MEMB     54       OSM      C14      CTL5    -0.350000       12.0110           0
      5962 MEMB     54       OSM      H14A     HL       0.250000       1.00800           0
      5963 MEMB     54       OSM      H14B     HL       0.250000       1.00800           0
      5964 MEMB     54       OSM      H14C     HL       0.250000       1.00800           0
      5965 MEMB     54       OSM      C13      CTL5    -0.350000       12.0110           0
      5966 MEMB     54       OSM      H13A     HL       0.250000       1.00800           0
      5967 MEMB     54       OSM      H13B     HL       0.250000       1.00800           0
      5968 MEMB     54       OSM      H13C     HL       0.250000       1.00800           0
      5969 MEMB     54       OSM      C12      CTL2    -0.100000       12.0110           0
      5970 MEMB     54       OSM      H12A     HL       0.250000       1.00800           0
      5971 MEMB     54       OSM      H12B     HL       0.250000       1.00800           0
      5972 MEMB     54       OSM      C11      CTL2    -0.800000E-01   12.0110           0
      5973 MEMB     54       OSM      H11A     HAL2     0.900000E-01   1.00800           0
      5974 MEMB     54       OSM      H11B     HAL2     0.900000E-01   1.00800           0
      5975 MEMB     54       OSM      P        PL        1.50000       30.9740           0
      5976 MEMB     54       OSM      O13      O2L     -0.780000       15.9994           0
      5977 MEMB     54       OSM      O14      O2L     -0.780000       15.9994           0
      5978 MEMB     54       OSM      O11      OSLP    -0.570000       15.9994           0
      5979 MEMB     54       OSM      O12      OSLP    -0.570000       15.9994           0
      5980 MEMB     54       OSM      C1S      CTL2    -0.800000E-01   12.0110           0
      5981 MEMB     54       OSM      H1S      HAL2     0.900000E-01   1.00800           0
      5982 MEMB     54       OSM      H1T      HAL2     0.900000E-01   1.00800           0
      5983 MEMB     54       OSM      NF       NHL     -0.700000       14.0070           0
      5984 MEMB     54       OSM      HNF      H        0.350000       1.00800           0
      5985 MEMB     54       OSM      C2S      CTL1     0.300000       12.0110           0
      5986 MEMB     54       OSM      H2S      HAL1     0.500000E-01   1.00800           0
      5987 MEMB     54       OSM      C3S      CTO1     0.500000       12.0110           0
      5988 MEMB     54       OSM      H3S      HAL1    -0.110000       1.00800           0
      5989 MEMB     54       OSM      O3       OHL     -0.690000       15.9994           0
      5990 MEMB     54       OSM      HO3      HOL      0.300000       1.00800           0
      5991 MEMB     54       OSM      C4S      CEL3    -0.150000       12.0110           0
      5992 MEMB     54       OSM      H4S      HEL1     0.150000       1.00800           0
      5993 MEMB     54       OSM      C5S      CEL3    -0.150000       12.0110           0
      5994 MEMB     54       OSM      H5S      HEL1     0.150000       1.00800           0
      5995 MEMB     54       OSM      C6S      CTL2    -0.180000       12.0110           0
      5996 MEMB     54       OSM      H6S      HAL2     0.900000E-01   1.00800           0
      5997 MEMB     54       OSM      H6T      HAL2     0.900000E-01   1.00800           0
      5998 MEMB     54       OSM      C7S      CTL2    -0.180000       12.0110           0
      5999 MEMB     54       OSM      H7S      HAL2     0.900000E-01   1.00800           0
      6000 MEMB     54       OSM      H7T      HAL2     0.900000E-01   1.00800           0
      6001 MEMB     54       OSM      C8S      CTL2    -0.180000       12.0110           0
      6002 MEMB     54       OSM      H8S      HAL2     0.900000E-01   1.00800           0
      6003 MEMB     54       OSM      H8T      HAL2     0.900000E-01   1.00800           0
      6004 MEMB     54       OSM      C9S      CTL2    -0.180000       12.0110           0
      6005 MEMB     54       OSM      H9S      HAL2     0.900000E-01   1.00800           0
      6006 MEMB     54       OSM      H9T      HAL2     0.900000E-01   1.00800           0
      6007 MEMB     54       OSM      C10S     CTL2    -0.180000       12.0110           0
      6008 MEMB     54       OSM      H10S     HAL2     0.900000E-01   1.00800           0
      6009 MEMB     54       OSM      H10T     HAL2     0.900000E-01   1.00800           0
      6010 MEMB     54       OSM      C11S     CTL2    -0.180000       12.0110           0
      6011 MEMB     54       OSM      H11S     HAL2     0.900000E-01   1.00800           0
      6012 MEMB     54       OSM      H11T     HAL2     0.900000E-01   1.00800           0
      6013 MEMB     54       OSM      C12S     CTL2    -0.180000       12.0110           0
      6014 MEMB     54       OSM      H12S     HAL2     0.900000E-01   1.00800           0
      6015 MEMB     54       OSM      H12T     HAL2     0.900000E-01   1.00800           0
      6016 MEMB     54       OSM      C13S     CTL2    -0.180000       12.0110           0
      6017 MEMB     54       OSM      H13S     HAL2     0.900000E-01   1.00800           0
      6018 MEMB     54       OSM      H13T     HAL2     0.900000E-01   1.00800           0
      6019 MEMB     54       OSM      C14S     CTL2    -0.180000       12.0110           0
      6020 MEMB     54       OSM      H14S     HAL2     0.900000E-01   1.00800           0
      6021 MEMB     54       OSM      H14T     HAL2     0.900000E-01   1.00800           0
      6022 MEMB     54       OSM      C15S     CTL2    -0.180000       12.0110           0
      6023 MEMB     54       OSM      H15S     HAL2     0.900000E-01   1.00800           0
      6024 MEMB     54       OSM      H15T     HAL2     0.900000E-01   1.00800           0
      6025 MEMB     54       OSM      C16S     CTL2    -0.180000       12.0110           0
      6026 MEMB     54       OSM      H16S     HAL2     0.900000E-01   1.00800           0
      6027 MEMB     54       OSM      H16T     HAL2     0.900000E-01   1.00800           0
      6028 MEMB     54       OSM      C17S     CTL2    -0.180000       12.0110           0
      6029 MEMB     54       OSM      H17S     HAL2     0.900000E-01   1.00800           0
      6030 MEMB     54       OSM      H17T     HAL2     0.900000E-01   1.00800           0
      6031 MEMB     54       OSM      C18S     CTL3    -0.270000       12.0110           0
      6032 MEMB     54       OSM      H18S     HAL3     0.900000E-01   1.00800           0
      6033 MEMB     54       OSM      H18T     HAL3     0.900000E-01   1.00800           0
      6034 MEMB     54       OSM      H18U     HAL3     0.900000E-01   1.00800           0
      6035 MEMB     54       OSM      C1F      C        0.550000       12.0110           0
      6036 MEMB     54       OSM      OF       O       -0.600000       15.9994           0
      6037 MEMB     54       OSM      C2F      CTL2    -0.700000E-01   12.0110           0
      6038 MEMB     54       OSM      H2F      HAL2     0.600000E-01   1.00800           0
      6039 MEMB     54       OSM      H2G      HAL2     0.600000E-01   1.00800           0
      6040 MEMB     54       OSM      C3F      CTL2    -0.180000       12.0110           0
      6041 MEMB     54       OSM      H3F      HAL2     0.900000E-01   1.00800           0
      6042 MEMB     54       OSM      H3G      HAL2     0.900000E-01   1.00800           0
      6043 MEMB     54       OSM      C4F      CTL2    -0.180000       12.0110           0
      6044 MEMB     54       OSM      H4F      HAL2     0.900000E-01   1.00800           0
      6045 MEMB     54       OSM      H4G      HAL2     0.900000E-01   1.00800           0
      6046 MEMB     54       OSM      C5F      CTL2    -0.180000       12.0110           0
      6047 MEMB     54       OSM      H5F      HAL2     0.900000E-01   1.00800           0
      6048 MEMB     54       OSM      H5G      HAL2     0.900000E-01   1.00800           0
      6049 MEMB     54       OSM      C6F      CTL2    -0.180000       12.0110           0
      6050 MEMB     54       OSM      H6F      HAL2     0.900000E-01   1.00800           0
      6051 MEMB     54       OSM      H6G      HAL2     0.900000E-01   1.00800           0
      6052 MEMB     54       OSM      C7F      CTL2    -0.180000       12.0110           0
      6053 MEMB     54       OSM      H7F      HAL2     0.900000E-01   1.00800           0
      6054 MEMB     54       OSM      H7G      HAL2     0.900000E-01   1.00800           0
      6055 MEMB     54       OSM      C8F      CTL2    -0.180000       12.0110           0
      6056 MEMB     54       OSM      H8F      HAL2     0.900000E-01   1.00800           0
      6057 MEMB     54       OSM      H8G      HAL2     0.900000E-01   1.00800           0
      6058 MEMB     54       OSM      C9F      CEL1    -0.150000       12.0110           0
      6059 MEMB     54       OSM      H9F      HEL1     0.150000       1.00800           0
      6060 MEMB     54       OSM      C10F     CEL1    -0.150000       12.0110           0
      6061 MEMB     54       OSM      H10F     HEL1     0.150000       1.00800           0
      6062 MEMB     54       OSM      C11F     CTL2    -0.180000       12.0110           0
      6063 MEMB     54       OSM      H11F     HAL2     0.900000E-01   1.00800           0
      6064 MEMB     54       OSM      H11G     HAL2     0.900000E-01   1.00800           0
      6065 MEMB     54       OSM      C12F     CTL2    -0.180000       12.0110           0
      6066 MEMB     54       OSM      H12F     HAL2     0.900000E-01   1.00800           0
      6067 MEMB     54       OSM      H12G     HAL2     0.900000E-01   1.00800           0
      6068 MEMB     54       OSM      C13F     CTL2    -0.180000       12.0110           0
      6069 MEMB     54       OSM      H13F     HAL2     0.900000E-01   1.00800           0
      6070 MEMB     54       OSM      H13G     HAL2     0.900000E-01   1.00800           0
      6071 MEMB     54       OSM      C14F     CTL2    -0.180000       12.0110           0
      6072 MEMB     54       OSM      H14F     HAL2     0.900000E-01   1.00800           0
      6073 MEMB     54       OSM      H14G     HAL2     0.900000E-01   1.00800           0
      6074 MEMB     54       OSM      C15F     CTL2    -0.180000       12.0110           0
      6075 MEMB     54       OSM      H15F     HAL2     0.900000E-01   1.00800           0
      6076 MEMB     54       OSM      H15G     HAL2     0.900000E-01   1.00800           0
      6077 MEMB     54       OSM      C16F     CTL2    -0.180000       12.0110           0
      6078 MEMB     54       OSM      H16F     HAL2     0.900000E-01   1.00800           0
      6079 MEMB     54       OSM      H16G     HAL2     0.900000E-01   1.00800           0
      6080 MEMB     54       OSM      C17F     CTL2    -0.180000       12.0110           0
      6081 MEMB     54       OSM      H17F     HAL2     0.900000E-01   1.00800           0
      6082 MEMB     54       OSM      H17G     HAL2     0.900000E-01   1.00800           0
      6083 MEMB     54       OSM      C18F     CTL3    -0.270000       12.0110           0
      6084 MEMB     54       OSM      H18F     HAL3     0.900000E-01   1.00800           0
      6085 MEMB     54       OSM      H18G     HAL3     0.900000E-01   1.00800           0
      6086 MEMB     54       OSM      H18H     HAL3     0.900000E-01   1.00800           0
      6087 MEMB     55       OSM      N        NTL     -0.600000       14.0070           0
      6088 MEMB     55       OSM      C15      CTL5    -0.350000       12.0110           0
      6089 MEMB     55       OSM      H15A     HL       0.250000       1.00800           0
      6090 MEMB     55       OSM      H15B     HL       0.250000       1.00800           0
      6091 MEMB     55       OSM      H15C     HL       0.250000       1.00800           0
      6092 MEMB     55       OSM      C14      CTL5    -0.350000       12.0110           0
      6093 MEMB     55       OSM      H14A     HL       0.250000       1.00800           0
      6094 MEMB     55       OSM      H14B     HL       0.250000       1.00800           0
      6095 MEMB     55       OSM      H14C     HL       0.250000       1.00800           0
      6096 MEMB     55       OSM      C13      CTL5    -0.350000       12.0110           0
      6097 MEMB     55       OSM      H13A     HL       0.250000       1.00800           0
      6098 MEMB     55       OSM      H13B     HL       0.250000       1.00800           0
      6099 MEMB     55       OSM      H13C     HL       0.250000       1.00800           0
      6100 MEMB     55       OSM      C12      CTL2    -0.100000       12.0110           0
      6101 MEMB     55       OSM      H12A     HL       0.250000       1.00800           0
      6102 MEMB     55       OSM      H12B     HL       0.250000       1.00800           0
      6103 MEMB     55       OSM      C11      CTL2    -0.800000E-01   12.0110           0
      6104 MEMB     55       OSM      H11A     HAL2     0.900000E-01   1.00800           0
      6105 MEMB     55       OSM      H11B     HAL2     0.900000E-01   1.00800           0
      6106 MEMB     55       OSM      P        PL        1.50000       30.9740           0
      6107 MEMB     55       OSM      O13      O2L     -0.780000       15.9994           0
      6108 MEMB     55       OSM      O14      O2L     -0.780000       15.9994           0
      6109 MEMB     55       OSM      O11      OSLP    -0.570000       15.9994           0
      6110 MEMB     55       OSM      O12      OSLP    -0.570000       15.9994           0
      6111 MEMB     55       OSM      C1S      CTL2    -0.800000E-01   12.0110           0
      6112 MEMB     55       OSM      H1S      HAL2     0.900000E-01   1.00800           0
      6113 MEMB     55       OSM      H1T      HAL2     0.900000E-01   1.00800           0
      6114 MEMB     55       OSM      NF       NHL     -0.700000       14.0070           0
      6115 MEMB     55       OSM      HNF      H        0.350000       1.00800           0
      6116 MEMB     55       OSM      C2S      CTL1     0.300000       12.0110           0
      6117 MEMB     55       OSM      H2S      HAL1     0.500000E-01   1.00800           0
      6118 MEMB     55       OSM      C3S      CTO1     0.500000       12.0110           0
      6119 MEMB     55       OSM      H3S      HAL1    -0.110000       1.00800           0
      6120 MEMB     55       OSM      O3       OHL     -0.690000       15.9994           0
      6121 MEMB     55       OSM      HO3      HOL      0.300000       1.00800           0
      6122 MEMB     55       OSM      C4S      CEL3    -0.150000       12.0110           0
      6123 MEMB     55       OSM      H4S      HEL1     0.150000       1.00800           0
      6124 MEMB     55       OSM      C5S      CEL3    -0.150000       12.0110           0
      6125 MEMB     55       OSM      H5S      HEL1     0.150000       1.00800           0
      6126 MEMB     55       OSM      C6S      CTL2    -0.180000       12.0110           0
      6127 MEMB     55       OSM      H6S      HAL2     0.900000E-01   1.00800           0
      6128 MEMB     55       OSM      H6T      HAL2     0.900000E-01   1.00800           0
      6129 MEMB     55       OSM      C7S      CTL2    -0.180000       12.0110           0
      6130 MEMB     55       OSM      H7S      HAL2     0.900000E-01   1.00800           0
      6131 MEMB     55       OSM      H7T      HAL2     0.900000E-01   1.00800           0
      6132 MEMB     55       OSM      C8S      CTL2    -0.180000       12.0110           0
      6133 MEMB     55       OSM      H8S      HAL2     0.900000E-01   1.00800           0
      6134 MEMB     55       OSM      H8T      HAL2     0.900000E-01   1.00800           0
      6135 MEMB     55       OSM      C9S      CTL2    -0.180000       12.0110           0
      6136 MEMB     55       OSM      H9S      HAL2     0.900000E-01   1.00800           0
      6137 MEMB     55       OSM      H9T      HAL2     0.900000E-01   1.00800           0
      6138 MEMB     55       OSM      C10S     CTL2    -0.180000       12.0110           0
      6139 MEMB     55       OSM      H10S     HAL2     0.900000E-01   1.00800           0
      6140 MEMB     55       OSM      H10T     HAL2     0.900000E-01   1.00800           0
      6141 MEMB     55       OSM      C11S     CTL2    -0.180000       12.0110           0
      6142 MEMB     55       OSM      H11S     HAL2     0.900000E-01   1.00800           0
      6143 MEMB     55       OSM      H11T     HAL2     0.900000E-01   1.00800           0
      6144 MEMB     55       OSM      C12S     CTL2    -0.180000       12.0110           0
      6145 MEMB     55       OSM      H12S     HAL2     0.900000E-01   1.00800           0
      6146 MEMB     55       OSM      H12T     HAL2     0.900000E-01   1.00800           0
      6147 MEMB     55       OSM      C13S     CTL2    -0.180000       12.0110           0
      6148 MEMB     55       OSM      H13S     HAL2     0.900000E-01   1.00800           0
      6149 MEMB     55       OSM      H13T     HAL2     0.900000E-01   1.00800           0
      6150 MEMB     55       OSM      C14S     CTL2    -0.180000       12.0110           0
      6151 MEMB     55       OSM      H14S     HAL2     0.900000E-01   1.00800           0
      6152 MEMB     55       OSM      H14T     HAL2     0.900000E-01   1.00800           0
      6153 MEMB     55       OSM      C15S     CTL2    -0.180000       12.0110           0
      6154 MEMB     55       OSM      H15S     HAL2     0.900000E-01   1.00800           0
      6155 MEMB     55       OSM      H15T     HAL2     0.900000E-01   1.00800           0
      6156 MEMB     55       OSM      C16S     CTL2    -0.180000       12.0110           0
      6157 MEMB     55       OSM      H16S     HAL2     0.900000E-01   1.00800           0
      6158 MEMB     55       OSM      H16T     HAL2     0.900000E-01   1.00800           0
      6159 MEMB     55       OSM      C17S     CTL2    -0.180000       12.0110           0
      6160 MEMB     55       OSM      H17S     HAL2     0.900000E-01   1.00800           0
      6161 MEMB     55       OSM      H17T     HAL2     0.900000E-01   1.00800           0
      6162 MEMB     55       OSM      C18S     CTL3    -0.270000       12.0110           0
      6163 MEMB     55       OSM      H18S     HAL3     0.900000E-01   1.00800           0
      6164 MEMB     55       OSM      H18T     HAL3     0.900000E-01   1.00800           0
      6165 MEMB     55       OSM      H18U     HAL3     0.900000E-01   1.00800           0
      6166 MEMB     55       OSM      C1F      C        0.550000       12.0110           0
      6167 MEMB     55       OSM      OF       O       -0.600000       15.9994           0
      6168 MEMB     55       OSM      C2F      CTL2    -0.700000E-01   12.0110           0
      6169 MEMB     55       OSM      H2F      HAL2     0.600000E-01   1.00800           0
      6170 MEMB     55       OSM      H2G      HAL2     0.600000E-01   1.00800           0
      6171 MEMB     55       OSM      C3F      CTL2    -0.180000       12.0110           0
      6172 MEMB     55       OSM      H3F      HAL2     0.900000E-01   1.00800           0
      6173 MEMB     55       OSM      H3G      HAL2     0.900000E-01   1.00800           0
      6174 MEMB     55       OSM      C4F      CTL2    -0.180000       12.0110           0
      6175 MEMB     55       OSM      H4F      HAL2     0.900000E-01   1.00800           0
      6176 MEMB     55       OSM      H4G      HAL2     0.900000E-01   1.00800           0
      6177 MEMB     55       OSM      C5F      CTL2    -0.180000       12.0110           0
      6178 MEMB     55       OSM      H5F      HAL2     0.900000E-01   1.00800           0
      6179 MEMB     55       OSM      H5G      HAL2     0.900000E-01   1.00800           0
      6180 MEMB     55       OSM      C6F      CTL2    -0.180000       12.0110           0
      6181 MEMB     55       OSM      H6F      HAL2     0.900000E-01   1.00800           0
      6182 MEMB     55       OSM      H6G      HAL2     0.900000E-01   1.00800           0
      6183 MEMB     55       OSM      C7F      CTL2    -0.180000       12.0110           0
      6184 MEMB     55       OSM      H7F      HAL2     0.900000E-01   1.00800           0
      6185 MEMB     55       OSM      H7G      HAL2     0.900000E-01   1.00800           0
      6186 MEMB     55       OSM      C8F      CTL2    -0.180000       12.0110           0
      6187 MEMB     55       OSM      H8F      HAL2     0.900000E-01   1.00800           0
      6188 MEMB     55       OSM      H8G      HAL2     0.900000E-01   1.00800           0
      6189 MEMB     55       OSM      C9F      CEL1    -0.150000       12.0110           0
      6190 MEMB     55       OSM      H9F      HEL1     0.150000       1.00800           0
      6191 MEMB     55       OSM      C10F     CEL1    -0.150000       12.0110           0
      6192 MEMB     55       OSM      H10F     HEL1     0.150000       1.00800           0
      6193 MEMB     55       OSM      C11F     CTL2    -0.180000       12.0110           0
      6194 MEMB     55       OSM      H11F     HAL2     0.900000E-01   1.00800           0
      6195 MEMB     55       OSM      H11G     HAL2     0.900000E-01   1.00800           0
      6196 MEMB     55       OSM      C12F     CTL2    -0.180000       12.0110           0
      6197 MEMB     55       OSM      H12F     HAL2     0.900000E-01   1.00800           0
      6198 MEMB     55       OSM      H12G     HAL2     0.900000E-01   1.00800           0
      6199 MEMB     55       OSM      C13F     CTL2    -0.180000       12.0110           0
      6200 MEMB     55       OSM      H13F     HAL2     0.900000E-01   1.00800           0
      6201 MEMB     55       OSM      H13G     HAL2     0.900000E-01   1.00800           0
      6202 MEMB     55       OSM      C14F     CTL2    -0.180000       12.0110           0
      6203 MEMB     55       OSM      H14F     HAL2     0.900000E-01   1.00800           0
      6204 MEMB     55       OSM      H14G     HAL2     0.900000E-01   1.00800           0
      6205 MEMB     55       OSM      C15F     CTL2    -0.180000       12.0110           0
      6206 MEMB     55       OSM      H15F     HAL2     0.900000E-01   1.00800           0
      6207 MEMB     55       OSM      H15G     HAL2     0.900000E-01   1.00800           0
      6208 MEMB     55       OSM      C16F     CTL2    -0.180000       12.0110           0
      6209 MEMB     55       OSM      H16F     HAL2     0.900000E-01   1.00800           0
      6210 MEMB     55       OSM      H16G     HAL2     0.900000E-01   1.00800           0
      6211 MEMB     55       OSM      C17F     CTL2    -0.180000       12.0110           0
      6212 MEMB     55       OSM      H17F     HAL2     0.900000E-01   1.00800           0
      6213 MEMB     55       OSM      H17G     HAL2     0.900000E-01   1.00800           0
      6214 MEMB     55       OSM      C18F     CTL3    -0.270000       12.0110           0
      6215 MEMB     55       OSM      H18F     HAL3     0.900000E-01   1.00800           0
      6216 MEMB     55       OSM      H18G     HAL3     0.900000E-01   1.00800           0
      6217 MEMB     55       OSM      H18H     HAL3     0.900000E-01   1.00800           0
      6218 MEMB     56       OSM      N        NTL     -0.600000       14.0070           0
      6219 MEMB     56       OSM      C15      CTL5    -0.350000       12.0110           0
      6220 MEMB     56       OSM      H15A     HL       0.250000       1.00800           0
      6221 MEMB     56       OSM      H15B     HL       0.250000       1.00800           0
      6222 MEMB     56       OSM      H15C     HL       0.250000       1.00800           0
      6223 MEMB     56       OSM      C14      CTL5    -0.350000       12.0110           0
      6224 MEMB     56       OSM      H14A     HL       0.250000       1.00800           0
      6225 MEMB     56       OSM      H14B     HL       0.250000       1.00800           0
      6226 MEMB     56       OSM      H14C     HL       0.250000       1.00800           0
      6227 MEMB     56       OSM      C13      CTL5    -0.350000       12.0110           0
      6228 MEMB     56       OSM      H13A     HL       0.250000       1.00800           0
      6229 MEMB     56       OSM      H13B     HL       0.250000       1.00800           0
      6230 MEMB     56       OSM      H13C     HL       0.250000       1.00800           0
      6231 MEMB     56       OSM      C12      CTL2    -0.100000       12.0110           0
      6232 MEMB     56       OSM      H12A     HL       0.250000       1.00800           0
      6233 MEMB     56       OSM      H12B     HL       0.250000       1.00800           0
      6234 MEMB     56       OSM      C11      CTL2    -0.800000E-01   12.0110           0
      6235 MEMB     56       OSM      H11A     HAL2     0.900000E-01   1.00800           0
      6236 MEMB     56       OSM      H11B     HAL2     0.900000E-01   1.00800           0
      6237 MEMB     56       OSM      P        PL        1.50000       30.9740           0
      6238 MEMB     56       OSM      O13      O2L     -0.780000       15.9994           0
      6239 MEMB     56       OSM      O14      O2L     -0.780000       15.9994           0
      6240 MEMB     56       OSM      O11      OSLP    -0.570000       15.9994           0
      6241 MEMB     56       OSM      O12      OSLP    -0.570000       15.9994           0
      6242 MEMB     56       OSM      C1S      CTL2    -0.800000E-01   12.0110           0
      6243 MEMB     56       OSM      H1S      HAL2     0.900000E-01   1.00800           0
      6244 MEMB     56       OSM      H1T      HAL2     0.900000E-01   1.00800           0
      6245 MEMB     56       OSM      NF       NHL     -0.700000       14.0070           0
      6246 MEMB     56       OSM      HNF      H        0.350000       1.00800           0
      6247 MEMB     56       OSM      C2S      CTL1     0.300000       12.0110           0
      6248 MEMB     56       OSM      H2S      HAL1     0.500000E-01   1.00800           0
      6249 MEMB     56       OSM      C3S      CTO1     0.500000       12.0110           0
      6250 MEMB     56       OSM      H3S      HAL1    -0.110000       1.00800           0
      6251 MEMB     56       OSM      O3       OHL     -0.690000       15.9994           0
      6252 MEMB     56       OSM      HO3      HOL      0.300000       1.00800           0
      6253 MEMB     56       OSM      C4S      CEL3    -0.150000       12.0110           0
      6254 MEMB     56       OSM      H4S      HEL1     0.150000       1.00800           0
      6255 MEMB     56       OSM      C5S      CEL3    -0.150000       12.0110           0
      6256 MEMB     56       OSM      H5S      HEL1     0.150000       1.00800           0
      6257 MEMB     56       OSM      C6S      CTL2    -0.180000       12.0110           0
      6258 MEMB     56       OSM      H6S      HAL2     0.900000E-01   1.00800           0
      6259 MEMB     56       OSM      H6T      HAL2     0.900000E-01   1.00800           0
      6260 MEMB     56       OSM      C7S      CTL2    -0.180000       12.0110           0
      6261 MEMB     56       OSM      H7S      HAL2     0.900000E-01   1.00800           0
      6262 MEMB     56       OSM      H7T      HAL2     0.900000E-01   1.00800           0
      6263 MEMB     56       OSM      C8S      CTL2    -0.180000       12.0110           0
      6264 MEMB     56       OSM      H8S      HAL2     0.900000E-01   1.00800           0
      6265 MEMB     56       OSM      H8T      HAL2     0.900000E-01   1.00800           0
      6266 MEMB     56       OSM      C9S      CTL2    -0.180000       12.0110           0
      6267 MEMB     56       OSM      H9S      HAL2     0.900000E-01   1.00800           0
      6268 MEMB     56       OSM      H9T      HAL2     0.900000E-01   1.00800           0
      6269 MEMB     56       OSM      C10S     CTL2    -0.180000       12.0110           0
      6270 MEMB     56       OSM      H10S     HAL2     0.900000E-01   1.00800           0
      6271 MEMB     56       OSM      H10T     HAL2     0.900000E-01   1.00800           0
      6272 MEMB     56       OSM      C11S     CTL2    -0.180000       12.0110           0
      6273 MEMB     56       OSM      H11S     HAL2     0.900000E-01   1.00800           0
      6274 MEMB     56       OSM      H11T     HAL2     0.900000E-01   1.00800           0
      6275 MEMB     56       OSM      C12S     CTL2    -0.180000       12.0110           0
      6276 MEMB     56       OSM      H12S     HAL2     0.900000E-01   1.00800           0
      6277 MEMB     56       OSM      H12T     HAL2     0.900000E-01   1.00800           0
      6278 MEMB     56       OSM      C13S     CTL2    -0.180000       12.0110           0
      6279 MEMB     56       OSM      H13S     HAL2     0.900000E-01   1.00800           0
      6280 MEMB     56       OSM      H13T     HAL2     0.900000E-01   1.00800           0
      6281 MEMB     56       OSM      C14S     CTL2    -0.180000       12.0110           0
      6282 MEMB     56       OSM      H14S     HAL2     0.900000E-01   1.00800           0
      6283 MEMB     56       OSM      H14T     HAL2     0.900000E-01   1.00800           0
      6284 MEMB     56       OSM      C15S     CTL2    -0.180000       12.0110           0
      6285 MEMB     56       OSM      H15S     HAL2     0.900000E-01   1.00800           0
      6286 MEMB     56       OSM      H15T     HAL2     0.900000E-01   1.00800           0
      6287 MEMB     56       OSM      C16S     CTL2    -0.180000       12.0110           0
      6288 MEMB     56       OSM      H16S     HAL2     0.900000E-01   1.00800           0
      6289 MEMB     56       OSM      H16T     HAL2     0.900000E-01   1.00800           0
      6290 MEMB     56       OSM      C17S     CTL2    -0.180000       12.0110           0
      6291 MEMB     56       OSM      H17S     HAL2     0.900000E-01   1.00800           0
      6292 MEMB     56       OSM      H17T     HAL2     0.900000E-01   1.00800           0
      6293 MEMB     56       OSM      C18S     CTL3    -0.270000       12.0110           0
      6294 MEMB     56       OSM      H18S     HAL3     0.900000E-01   1.00800           0
      6295 MEMB     56       OSM      H18T     HAL3     0.900000E-01   1.00800           0
      6296 MEMB     56       OSM      H18U     HAL3     0.900000E-01   1.00800           0
      6297 MEMB     56       OSM      C1F      C        0.550000       12.0110           0
      6298 MEMB     56       OSM      OF       O       -0.600000       15.9994           0
      6299 MEMB     56       OSM      C2F      CTL2    -0.700000E-01   12.0110           0
      6300 MEMB     56       OSM      H2F      HAL2     0.600000E-01   1.00800           0
      6301 MEMB     56       OSM      H2G      HAL2     0.600000E-01   1.00800           0
      6302 MEMB     56       OSM      C3F      CTL2    -0.180000       12.0110           0
      6303 MEMB     56       OSM      H3F      HAL2     0.900000E-01   1.00800           0
      6304 MEMB     56       OSM      H3G      HAL2     0.900000E-01   1.00800           0
      6305 MEMB     56       OSM      C4F      CTL2    -0.180000       12.0110           0
      6306 MEMB     56       OSM      H4F      HAL2     0.900000E-01   1.00800           0
      6307 MEMB     56       OSM      H4G      HAL2     0.900000E-01   1.00800           0
      6308 MEMB     56       OSM      C5F      CTL2    -0.180000       12.0110           0
      6309 MEMB     56       OSM      H5F      HAL2     0.900000E-01   1.00800           0
      6310 MEMB     56       OSM      H5G      HAL2     0.900000E-01   1.00800           0
      6311 MEMB     56       OSM      C6F      CTL2    -0.180000       12.0110           0
      6312 MEMB     56       OSM      H6F      HAL2     0.900000E-01   1.00800           0
      6313 MEMB     56       OSM      H6G      HAL2     0.900000E-01   1.00800           0
      6314 MEMB     56       OSM      C7F      CTL2    -0.180000       12.0110           0
      6315 MEMB     56       OSM      H7F      HAL2     0.900000E-01   1.00800           0
      6316 MEMB     56       OSM      H7G      HAL2     0.900000E-01   1.00800           0
      6317 MEMB     56       OSM      C8F      CTL2    -0.180000       12.0110           0
      6318 MEMB     56       OSM      H8F      HAL2     0.900000E-01   1.00800           0
      6319 MEMB     56       OSM      H8G      HAL2     0.900000E-01   1.00800           0
      6320 MEMB     56       OSM      C9F      CEL1    -0.150000       12.0110           0
      6321 MEMB     56       OSM      H9F      HEL1     0.150000       1.00800           0
      6322 MEMB     56       OSM      C10F     CEL1    -0.150000       12.0110           0
      6323 MEMB     56       OSM      H10F     HEL1     0.150000       1.00800           0
      6324 MEMB     56       OSM      C11F     CTL2    -0.180000       12.0110           0
      6325 MEMB     56       OSM      H11F     HAL2     0.900000E-01   1.00800           0
      6326 MEMB     56       OSM      H11G     HAL2     0.900000E-01   1.00800           0
      6327 MEMB     56       OSM      C12F     CTL2    -0.180000       12.0110           0
      6328 MEMB     56       OSM      H12F     HAL2     0.900000E-01   1.00800           0
      6329 MEMB     56       OSM      H12G     HAL2     0.900000E-01   1.00800           0
      6330 MEMB     56       OSM      C13F     CTL2    -0.180000       12.0110           0
      6331 MEMB     56       OSM      H13F     HAL2     0.900000E-01   1.00800           0
      6332 MEMB     56       OSM      H13G     HAL2     0.900000E-01   1.00800           0
      6333 MEMB     56       OSM      C14F     CTL2    -0.180000       12.0110           0
      6334 MEMB     56       OSM      H14F     HAL2     0.900000E-01   1.00800           0
      6335 MEMB     56       OSM      H14G     HAL2     0.900000E-01   1.00800           0
      6336 MEMB     56       OSM      C15F     CTL2    -0.180000       12.0110           0
      6337 MEMB     56       OSM      H15F     HAL2     0.900000E-01   1.00800           0
      6338 MEMB     56       OSM      H15G     HAL2     0.900000E-01   1.00800           0
      6339 MEMB     56       OSM      C16F     CTL2    -0.180000       12.0110           0
      6340 MEMB     56       OSM      H16F     HAL2     0.900000E-01   1.00800           0
      6341 MEMB     56       OSM      H16G     HAL2     0.900000E-01   1.00800           0
      6342 MEMB     56       OSM      C17F     CTL2    -0.180000       12.0110           0
      6343 MEMB     56       OSM      H17F     HAL2     0.900000E-01   1.00800           0
      6344 MEMB     56       OSM      H17G     HAL2     0.900000E-01   1.00800           0
      6345 MEMB     56       OSM      C18F     CTL3    -0.270000       12.0110           0
      6346 MEMB     56       OSM      H18F     HAL3     0.900000E-01   1.00800           0
      6347 MEMB     56       OSM      H18G     HAL3     0.900000E-01   1.00800           0
      6348 MEMB     56       OSM      H18H     HAL3     0.900000E-01   1.00800           0
      6349 MEMB     57       SLPC     N        NTL     -0.600000       14.0070           0
      6350 MEMB     57       SLPC     C13      CTL5    -0.350000       12.0110           0
      6351 MEMB     57       SLPC     H13A     HL       0.250000       1.00800           0
      6352 MEMB     57       SLPC     H13B     HL       0.250000       1.00800           0
      6353 MEMB     57       SLPC     H13C     HL       0.250000       1.00800           0
      6354 MEMB     57       SLPC     C14      CTL5    -0.350000       12.0110           0
      6355 MEMB     57       SLPC     H14A     HL       0.250000       1.00800           0
      6356 MEMB     57       SLPC     H14B     HL       0.250000       1.00800           0
      6357 MEMB     57       SLPC     H14C     HL       0.250000       1.00800           0
      6358 MEMB     57       SLPC     C15      CTL5    -0.350000       12.0110           0
      6359 MEMB     57       SLPC     H15A     HL       0.250000       1.00800           0
      6360 MEMB     57       SLPC     H15B     HL       0.250000       1.00800           0
      6361 MEMB     57       SLPC     H15C     HL       0.250000       1.00800           0
      6362 MEMB     57       SLPC     C12      CTL2    -0.100000       12.0110           0
      6363 MEMB     57       SLPC     H12A     HL       0.250000       1.00800           0
      6364 MEMB     57       SLPC     H12B     HL       0.250000       1.00800           0
      6365 MEMB     57       SLPC     C11      CTL2    -0.800000E-01   12.0110           0
      6366 MEMB     57       SLPC     H11A     HAL2     0.900000E-01   1.00800           0
      6367 MEMB     57       SLPC     H11B     HAL2     0.900000E-01   1.00800           0
      6368 MEMB     57       SLPC     P        PL        1.50000       30.9740           0
      6369 MEMB     57       SLPC     O13      O2L     -0.780000       15.9994           0
      6370 MEMB     57       SLPC     O14      O2L     -0.780000       15.9994           0
      6371 MEMB     57       SLPC     O12      OSLP    -0.570000       15.9994           0
      6372 MEMB     57       SLPC     O11      OSLP    -0.570000       15.9994           0
      6373 MEMB     57       SLPC     C1       CTL2    -0.800000E-01   12.0110           0
      6374 MEMB     57       SLPC     HA       HAL2     0.900000E-01   1.00800           0
      6375 MEMB     57       SLPC     HB       HAL2     0.900000E-01   1.00800           0
      6376 MEMB     57       SLPC     C2       CTL1     0.170000       12.0110           0
      6377 MEMB     57       SLPC     HS       HAL1     0.900000E-01   1.00800           0
      6378 MEMB     57       SLPC     O21      OSL     -0.490000       15.9994           0
      6379 MEMB     57       SLPC     C21      CL       0.900000       12.0110           0
      6380 MEMB     57       SLPC     O22      OBL     -0.630000       15.9994           0
      6381 MEMB     57       SLPC     C22      CTL2    -0.220000       12.0110           0
      6382 MEMB     57       SLPC     H2R      HAL2     0.900000E-01   1.00800           0
      6383 MEMB     57       SLPC     H2S      HAL2     0.900000E-01   1.00800           0
      6384 MEMB     57       SLPC     C3       CTL2     0.800000E-01   12.0110           0
      6385 MEMB     57       SLPC     HX       HAL2     0.900000E-01   1.00800           0
      6386 MEMB     57       SLPC     HY       HAL2     0.900000E-01   1.00800           0
      6387 MEMB     57       SLPC     O31      OSL     -0.490000       15.9994           0
      6388 MEMB     57       SLPC     C31      CL       0.900000       12.0110           0
      6389 MEMB     57       SLPC     O32      OBL     -0.630000       15.9994           0
      6390 MEMB     57       SLPC     C32      CTL2    -0.220000       12.0110           0
      6391 MEMB     57       SLPC     H2X      HAL2     0.900000E-01   1.00800           0
      6392 MEMB     57       SLPC     H2Y      HAL2     0.900000E-01   1.00800           0
      6393 MEMB     57       SLPC     C23      CTL2    -0.180000       12.0110           0
      6394 MEMB     57       SLPC     H3R      HAL2     0.900000E-01   1.00800           0
      6395 MEMB     57       SLPC     H3S      HAL2     0.900000E-01   1.00800           0
      6396 MEMB     57       SLPC     C24      CTL2    -0.180000       12.0110           0
      6397 MEMB     57       SLPC     H4R      HAL2     0.900000E-01   1.00800           0
      6398 MEMB     57       SLPC     H4S      HAL2     0.900000E-01   1.00800           0
      6399 MEMB     57       SLPC     C25      CTL2    -0.180000       12.0110           0
      6400 MEMB     57       SLPC     H5R      HAL2     0.900000E-01   1.00800           0
      6401 MEMB     57       SLPC     H5S      HAL2     0.900000E-01   1.00800           0
      6402 MEMB     57       SLPC     C26      CTL2    -0.180000       12.0110           0
      6403 MEMB     57       SLPC     H6R      HAL2     0.900000E-01   1.00800           0
      6404 MEMB     57       SLPC     H6S      HAL2     0.900000E-01   1.00800           0
      6405 MEMB     57       SLPC     C27      CTL2    -0.180000       12.0110           0
      6406 MEMB     57       SLPC     H7R      HAL2     0.900000E-01   1.00800           0
      6407 MEMB     57       SLPC     H7S      HAL2     0.900000E-01   1.00800           0
      6408 MEMB     57       SLPC     C28      CTL2    -0.180000       12.0110           0
      6409 MEMB     57       SLPC     H8R      HAL2     0.900000E-01   1.00800           0
      6410 MEMB     57       SLPC     H8S      HAL2     0.900000E-01   1.00800           0
      6411 MEMB     57       SLPC     C29      CEL1    -0.150000       12.0110           0
      6412 MEMB     57       SLPC     H9R      HEL1     0.150000       1.00800           0
      6413 MEMB     57       SLPC     C210     CEL1    -0.150000       12.0110           0
      6414 MEMB     57       SLPC     H10R     HEL1     0.150000       1.00800           0
      6415 MEMB     57       SLPC     C211     CTL2    -0.180000       12.0110           0
      6416 MEMB     57       SLPC     H11R     HAL2     0.900000E-01   1.00800           0
      6417 MEMB     57       SLPC     H11S     HAL2     0.900000E-01   1.00800           0
      6418 MEMB     57       SLPC     C212     CEL1    -0.150000       12.0110           0
      6419 MEMB     57       SLPC     H12R     HEL1     0.150000       1.00800           0
      6420 MEMB     57       SLPC     C213     CEL1    -0.150000       12.0110           0
      6421 MEMB     57       SLPC     H13R     HEL1     0.150000       1.00800           0
      6422 MEMB     57       SLPC     C214     CTL2    -0.180000       12.0110           0
      6423 MEMB     57       SLPC     H14R     HAL2     0.900000E-01   1.00800           0
      6424 MEMB     57       SLPC     H14S     HAL2     0.900000E-01   1.00800           0
      6425 MEMB     57       SLPC     C215     CTL2    -0.180000       12.0110           0
      6426 MEMB     57       SLPC     H15R     HAL2     0.900000E-01   1.00800           0
      6427 MEMB     57       SLPC     H15S     HAL2     0.900000E-01   1.00800           0
      6428 MEMB     57       SLPC     C216     CTL2    -0.180000       12.0110           0
      6429 MEMB     57       SLPC     H16R     HAL2     0.900000E-01   1.00800           0
      6430 MEMB     57       SLPC     H16S     HAL2     0.900000E-01   1.00800           0
      6431 MEMB     57       SLPC     C217     CTL2    -0.180000       12.0110           0
      6432 MEMB     57       SLPC     H17R     HAL2     0.900000E-01   1.00800           0
      6433 MEMB     57       SLPC     H17S     HAL2     0.900000E-01   1.00800           0
      6434 MEMB     57       SLPC     C218     CTL3    -0.270000       12.0110           0
      6435 MEMB     57       SLPC     H18R     HAL3     0.900000E-01   1.00800           0
      6436 MEMB     57       SLPC     H18S     HAL3     0.900000E-01   1.00800           0
      6437 MEMB     57       SLPC     H18T     HAL3     0.900000E-01   1.00800           0
      6438 MEMB     57       SLPC     C33      CTL2    -0.180000       12.0110           0
      6439 MEMB     57       SLPC     H3X      HAL2     0.900000E-01   1.00800           0
      6440 MEMB     57       SLPC     H3Y      HAL2     0.900000E-01   1.00800           0
      6441 MEMB     57       SLPC     C34      CTL2    -0.180000       12.0110           0
      6442 MEMB     57       SLPC     H4X      HAL2     0.900000E-01   1.00800           0
      6443 MEMB     57       SLPC     H4Y      HAL2     0.900000E-01   1.00800           0
      6444 MEMB     57       SLPC     C35      CTL2    -0.180000       12.0110           0
      6445 MEMB     57       SLPC     H5X      HAL2     0.900000E-01   1.00800           0
      6446 MEMB     57       SLPC     H5Y      HAL2     0.900000E-01   1.00800           0
      6447 MEMB     57       SLPC     C36      CTL2    -0.180000       12.0110           0
      6448 MEMB     57       SLPC     H6X      HAL2     0.900000E-01   1.00800           0
      6449 MEMB     57       SLPC     H6Y      HAL2     0.900000E-01   1.00800           0
      6450 MEMB     57       SLPC     C37      CTL2    -0.180000       12.0110           0
      6451 MEMB     57       SLPC     H7X      HAL2     0.900000E-01   1.00800           0
      6452 MEMB     57       SLPC     H7Y      HAL2     0.900000E-01   1.00800           0
      6453 MEMB     57       SLPC     C38      CTL2    -0.180000       12.0110           0
      6454 MEMB     57       SLPC     H8X      HAL2     0.900000E-01   1.00800           0
      6455 MEMB     57       SLPC     H8Y      HAL2     0.900000E-01   1.00800           0
      6456 MEMB     57       SLPC     C39      CTL2    -0.180000       12.0110           0
      6457 MEMB     57       SLPC     H9X      HAL2     0.900000E-01   1.00800           0
      6458 MEMB     57       SLPC     H9Y      HAL2     0.900000E-01   1.00800           0
      6459 MEMB     57       SLPC     C310     CTL2    -0.180000       12.0110           0
      6460 MEMB     57       SLPC     H10X     HAL2     0.900000E-01   1.00800           0
      6461 MEMB     57       SLPC     H10Y     HAL2     0.900000E-01   1.00800           0
      6462 MEMB     57       SLPC     C311     CTL2    -0.180000       12.0110           0
      6463 MEMB     57       SLPC     H11X     HAL2     0.900000E-01   1.00800           0
      6464 MEMB     57       SLPC     H11Y     HAL2     0.900000E-01   1.00800           0
      6465 MEMB     57       SLPC     C312     CTL2    -0.180000       12.0110           0
      6466 MEMB     57       SLPC     H12X     HAL2     0.900000E-01   1.00800           0
      6467 MEMB     57       SLPC     H12Y     HAL2     0.900000E-01   1.00800           0
      6468 MEMB     57       SLPC     C313     CTL2    -0.180000       12.0110           0
      6469 MEMB     57       SLPC     H13X     HAL2     0.900000E-01   1.00800           0
      6470 MEMB     57       SLPC     H13Y     HAL2     0.900000E-01   1.00800           0
      6471 MEMB     57       SLPC     C314     CTL2    -0.180000       12.0110           0
      6472 MEMB     57       SLPC     H14X     HAL2     0.900000E-01   1.00800           0
      6473 MEMB     57       SLPC     H14Y     HAL2     0.900000E-01   1.00800           0
      6474 MEMB     57       SLPC     C315     CTL2    -0.180000       12.0110           0
      6475 MEMB     57       SLPC     H15X     HAL2     0.900000E-01   1.00800           0
      6476 MEMB     57       SLPC     H15Y     HAL2     0.900000E-01   1.00800           0
      6477 MEMB     57       SLPC     C316     CTL2    -0.180000       12.0110           0
      6478 MEMB     57       SLPC     H16X     HAL2     0.900000E-01   1.00800           0
      6479 MEMB     57       SLPC     H16Y     HAL2     0.900000E-01   1.00800           0
      6480 MEMB     57       SLPC     C317     CTL2    -0.180000       12.0110           0
      6481 MEMB     57       SLPC     H17X     HAL2     0.900000E-01   1.00800           0
      6482 MEMB     57       SLPC     H17Y     HAL2     0.900000E-01   1.00800           0
      6483 MEMB     57       SLPC     C318     CTL3    -0.270000       12.0110           0
      6484 MEMB     57       SLPC     H18X     HAL3     0.900000E-01   1.00800           0
      6485 MEMB     57       SLPC     H18Y     HAL3     0.900000E-01   1.00800           0
      6486 MEMB     57       SLPC     H18Z     HAL3     0.900000E-01   1.00800           0
      6487 MEMB     58       SLPC     N        NTL     -0.600000       14.0070           0
      6488 MEMB     58       SLPC     C13      CTL5    -0.350000       12.0110           0
      6489 MEMB     58       SLPC     H13A     HL       0.250000       1.00800           0
      6490 MEMB     58       SLPC     H13B     HL       0.250000       1.00800           0
      6491 MEMB     58       SLPC     H13C     HL       0.250000       1.00800           0
      6492 MEMB     58       SLPC     C14      CTL5    -0.350000       12.0110           0
      6493 MEMB     58       SLPC     H14A     HL       0.250000       1.00800           0
      6494 MEMB     58       SLPC     H14B     HL       0.250000       1.00800           0
      6495 MEMB     58       SLPC     H14C     HL       0.250000       1.00800           0
      6496 MEMB     58       SLPC     C15      CTL5    -0.350000       12.0110           0
      6497 MEMB     58       SLPC     H15A     HL       0.250000       1.00800           0
      6498 MEMB     58       SLPC     H15B     HL       0.250000       1.00800           0
      6499 MEMB     58       SLPC     H15C     HL       0.250000       1.00800           0
      6500 MEMB     58       SLPC     C12      CTL2    -0.100000       12.0110           0
      6501 MEMB     58       SLPC     H12A     HL       0.250000       1.00800           0
      6502 MEMB     58       SLPC     H12B     HL       0.250000       1.00800           0
      6503 MEMB     58       SLPC     C11      CTL2    -0.800000E-01   12.0110           0
      6504 MEMB     58       SLPC     H11A     HAL2     0.900000E-01   1.00800           0
      6505 MEMB     58       SLPC     H11B     HAL2     0.900000E-01   1.00800           0
      6506 MEMB     58       SLPC     P        PL        1.50000       30.9740           0
      6507 MEMB     58       SLPC     O13      O2L     -0.780000       15.9994           0
      6508 MEMB     58       SLPC     O14      O2L     -0.780000       15.9994           0
      6509 MEMB     58       SLPC     O12      OSLP    -0.570000       15.9994           0
      6510 MEMB     58       SLPC     O11      OSLP    -0.570000       15.9994           0
      6511 MEMB     58       SLPC     C1       CTL2    -0.800000E-01   12.0110           0
      6512 MEMB     58       SLPC     HA       HAL2     0.900000E-01   1.00800           0
      6513 MEMB     58       SLPC     HB       HAL2     0.900000E-01   1.00800           0
      6514 MEMB     58       SLPC     C2       CTL1     0.170000       12.0110           0
      6515 MEMB     58       SLPC     HS       HAL1     0.900000E-01   1.00800           0
      6516 MEMB     58       SLPC     O21      OSL     -0.490000       15.9994           0
      6517 MEMB     58       SLPC     C21      CL       0.900000       12.0110           0
      6518 MEMB     58       SLPC     O22      OBL     -0.630000       15.9994           0
      6519 MEMB     58       SLPC     C22      CTL2    -0.220000       12.0110           0
      6520 MEMB     58       SLPC     H2R      HAL2     0.900000E-01   1.00800           0
      6521 MEMB     58       SLPC     H2S      HAL2     0.900000E-01   1.00800           0
      6522 MEMB     58       SLPC     C3       CTL2     0.800000E-01   12.0110           0
      6523 MEMB     58       SLPC     HX       HAL2     0.900000E-01   1.00800           0
      6524 MEMB     58       SLPC     HY       HAL2     0.900000E-01   1.00800           0
      6525 MEMB     58       SLPC     O31      OSL     -0.490000       15.9994           0
      6526 MEMB     58       SLPC     C31      CL       0.900000       12.0110           0
      6527 MEMB     58       SLPC     O32      OBL     -0.630000       15.9994           0
      6528 MEMB     58       SLPC     C32      CTL2    -0.220000       12.0110           0
      6529 MEMB     58       SLPC     H2X      HAL2     0.900000E-01   1.00800           0
      6530 MEMB     58       SLPC     H2Y      HAL2     0.900000E-01   1.00800           0
      6531 MEMB     58       SLPC     C23      CTL2    -0.180000       12.0110           0
      6532 MEMB     58       SLPC     H3R      HAL2     0.900000E-01   1.00800           0
      6533 MEMB     58       SLPC     H3S      HAL2     0.900000E-01   1.00800           0
      6534 MEMB     58       SLPC     C24      CTL2    -0.180000       12.0110           0
      6535 MEMB     58       SLPC     H4R      HAL2     0.900000E-01   1.00800           0
      6536 MEMB     58       SLPC     H4S      HAL2     0.900000E-01   1.00800           0
      6537 MEMB     58       SLPC     C25      CTL2    -0.180000       12.0110           0
      6538 MEMB     58       SLPC     H5R      HAL2     0.900000E-01   1.00800           0
      6539 MEMB     58       SLPC     H5S      HAL2     0.900000E-01   1.00800           0
      6540 MEMB     58       SLPC     C26      CTL2    -0.180000       12.0110           0
      6541 MEMB     58       SLPC     H6R      HAL2     0.900000E-01   1.00800           0
      6542 MEMB     58       SLPC     H6S      HAL2     0.900000E-01   1.00800           0
      6543 MEMB     58       SLPC     C27      CTL2    -0.180000       12.0110           0
      6544 MEMB     58       SLPC     H7R      HAL2     0.900000E-01   1.00800           0
      6545 MEMB     58       SLPC     H7S      HAL2     0.900000E-01   1.00800           0
      6546 MEMB     58       SLPC     C28      CTL2    -0.180000       12.0110           0
      6547 MEMB     58       SLPC     H8R      HAL2     0.900000E-01   1.00800           0
      6548 MEMB     58       SLPC     H8S      HAL2     0.900000E-01   1.00800           0
      6549 MEMB     58       SLPC     C29      CEL1    -0.150000       12.0110           0
      6550 MEMB     58       SLPC     H9R      HEL1     0.150000       1.00800           0
      6551 MEMB     58       SLPC     C210     CEL1    -0.150000       12.0110           0
      6552 MEMB     58       SLPC     H10R     HEL1     0.150000       1.00800           0
      6553 MEMB     58       SLPC     C211     CTL2    -0.180000       12.0110           0
      6554 MEMB     58       SLPC     H11R     HAL2     0.900000E-01   1.00800           0
      6555 MEMB     58       SLPC     H11S     HAL2     0.900000E-01   1.00800           0
      6556 MEMB     58       SLPC     C212     CEL1    -0.150000       12.0110           0
      6557 MEMB     58       SLPC     H12R     HEL1     0.150000       1.00800           0
      6558 MEMB     58       SLPC     C213     CEL1    -0.150000       12.0110           0
      6559 MEMB     58       SLPC     H13R     HEL1     0.150000       1.00800           0
      6560 MEMB     58       SLPC     C214     CTL2    -0.180000       12.0110           0
      6561 MEMB     58       SLPC     H14R     HAL2     0.900000E-01   1.00800           0
      6562 MEMB     58       SLPC     H14S     HAL2     0.900000E-01   1.00800           0
      6563 MEMB     58       SLPC     C215     CTL2    -0.180000       12.0110           0
      6564 MEMB     58       SLPC     H15R     HAL2     0.900000E-01   1.00800           0
      6565 MEMB     58       SLPC     H15S     HAL2     0.900000E-01   1.00800           0
      6566 MEMB     58       SLPC     C216     CTL2    -0.180000       12.0110           0
      6567 MEMB     58       SLPC     H16R     HAL2     0.900000E-01   1.00800           0
      6568 MEMB     58       SLPC     H16S     HAL2     0.900000E-01   1.00800           0
      6569 MEMB     58       SLPC     C217     CTL2    -0.180000       12.0110           0
      6570 MEMB     58       SLPC     H17R     HAL2     0.900000E-01   1.00800           0
      6571 MEMB     58       SLPC     H17S     HAL2     0.900000E-01   1.00800           0
      6572 MEMB     58       SLPC     C218     CTL3    -0.270000       12.0110           0
      6573 MEMB     58       SLPC     H18R     HAL3     0.900000E-01   1.00800           0
      6574 MEMB     58       SLPC     H18S     HAL3     0.900000E-01   1.00800           0
      6575 MEMB     58       SLPC     H18T     HAL3     0.900000E-01   1.00800           0
      6576 MEMB     58       SLPC     C33      CTL2    -0.180000       12.0110           0
      6577 MEMB     58       SLPC     H3X      HAL2     0.900000E-01   1.00800           0
      6578 MEMB     58       SLPC     H3Y      HAL2     0.900000E-01   1.00800           0
      6579 MEMB     58       SLPC     C34      CTL2    -0.180000       12.0110           0
      6580 MEMB     58       SLPC     H4X      HAL2     0.900000E-01   1.00800           0
      6581 MEMB     58       SLPC     H4Y      HAL2     0.900000E-01   1.00800           0
      6582 MEMB     58       SLPC     C35      CTL2    -0.180000       12.0110           0
      6583 MEMB     58       SLPC     H5X      HAL2     0.900000E-01   1.00800           0
      6584 MEMB     58       SLPC     H5Y      HAL2     0.900000E-01   1.00800           0
      6585 MEMB     58       SLPC     C36      CTL2    -0.180000       12.0110           0
      6586 MEMB     58       SLPC     H6X      HAL2     0.900000E-01   1.00800           0
      6587 MEMB     58       SLPC     H6Y      HAL2     0.900000E-01   1.00800           0
      6588 MEMB     58       SLPC     C37      CTL2    -0.180000       12.0110           0
      6589 MEMB     58       SLPC     H7X      HAL2     0.900000E-01   1.00800           0
      6590 MEMB     58       SLPC     H7Y      HAL2     0.900000E-01   1.00800           0
      6591 MEMB     58       SLPC     C38      CTL2    -0.180000       12.0110           0
      6592 MEMB     58       SLPC     H8X      HAL2     0.900000E-01   1.00800           0
      6593 MEMB     58       SLPC     H8Y      HAL2     0.900000E-01   1.00800           0
      6594 MEMB     58       SLPC     C39      CTL2    -0.180000       12.0110           0
      6595 MEMB     58       SLPC     H9X      HAL2     0.900000E-01   1.00800           0
      6596 MEMB     58       SLPC     H9Y      HAL2     0.900000E-01   1.00800           0
      6597 MEMB     58       SLPC     C310     CTL2    -0.180000       12.0110           0
      6598 MEMB     58       SLPC     H10X     HAL2     0.900000E-01   1.00800           0
      6599 MEMB     58       SLPC     H10Y     HAL2     0.900000E-01   1.00800           0
      6600 MEMB     58       SLPC     C311     CTL2    -0.180000       12.0110           0
      6601 MEMB     58       SLPC     H11X     HAL2     0.900000E-01   1.00800           0
      6602 MEMB     58       SLPC     H11Y     HAL2     0.900000E-01   1.00800           0
      6603 MEMB     58       SLPC     C312     CTL2    -0.180000       12.0110           0
      6604 MEMB     58       SLPC     H12X     HAL2     0.900000E-01   1.00800           0
      6605 MEMB     58       SLPC     H12Y     HAL2     0.900000E-01   1.00800           0
      6606 MEMB     58       SLPC     C313     CTL2    -0.180000       12.0110           0
      6607 MEMB     58       SLPC     H13X     HAL2     0.900000E-01   1.00800           0
      6608 MEMB     58       SLPC     H13Y     HAL2     0.900000E-01   1.00800           0
      6609 MEMB     58       SLPC     C314     CTL2    -0.180000       12.0110           0
      6610 MEMB     58       SLPC     H14X     HAL2     0.900000E-01   1.00800           0
      6611 MEMB     58       SLPC     H14Y     HAL2     0.900000E-01   1.00800           0
      6612 MEMB     58       SLPC     C315     CTL2    -0.180000       12.0110           0
      6613 MEMB     58       SLPC     H15X     HAL2     0.900000E-01   1.00800           0
      6614 MEMB     58       SLPC     H15Y     HAL2     0.900000E-01   1.00800           0
      6615 MEMB     58       SLPC     C316     CTL2    -0.180000       12.0110           0
      6616 MEMB     58       SLPC     H16X     HAL2     0.900000E-01   1.00800           0
      6617 MEMB     58       SLPC     H16Y     HAL2     0.900000E-01   1.00800           0
      6618 MEMB     58       SLPC     C317     CTL2    -0.180000       12.0110           0
      6619 MEMB     58       SLPC     H17X     HAL2     0.900000E-01   1.00800           0
      6620 MEMB     58       SLPC     H17Y     HAL2     0.900000E-01   1.00800           0
      6621 MEMB     58       SLPC     C318     CTL3    -0.270000       12.0110           0
      6622 MEMB     58       SLPC     H18X     HAL3     0.900000E-01   1.00800           0
      6623 MEMB     58       SLPC     H18Y     HAL3     0.900000E-01   1.00800           0
      6624 MEMB     58       SLPC     H18Z     HAL3     0.900000E-01   1.00800           0
      6625 MEMB     59       CHL1     C3       CRL1     0.140000       12.0110           0
      6626 MEMB     59       CHL1     H3       HGA1     0.900000E-01   1.00800           0
      6627 MEMB     59       CHL1     O3       OHL     -0.660000       15.9994           0
      6628 MEMB     59       CHL1     H3'      HOL      0.430000       1.00800           0
      6629 MEMB     59       CHL1     C4       CRL2    -0.180000       12.0110           0
      6630 MEMB     59       CHL1     H4A      HGA2     0.900000E-01   1.00800           0
      6631 MEMB     59       CHL1     H4B      HGA2     0.900000E-01   1.00800           0
      6632 MEMB     59       CHL1     C5       CEL1      0.00000       12.0110           0
      6633 MEMB     59       CHL1     C6       CEL1    -0.150000       12.0110           0
      6634 MEMB     59       CHL1     H6       HEL1     0.150000       1.00800           0
      6635 MEMB     59       CHL1     C7       CRL2    -0.180000       12.0110           0
      6636 MEMB     59       CHL1     H7A      HGA2     0.900000E-01   1.00800           0
      6637 MEMB     59       CHL1     H7B      HGA2     0.900000E-01   1.00800           0
      6638 MEMB     59       CHL1     C8       CRL1    -0.900000E-01   12.0110           0
      6639 MEMB     59       CHL1     H8       HGA1     0.900000E-01   1.00800           0
      6640 MEMB     59       CHL1     C14      CRL1    -0.900000E-01   12.0110           0
      6641 MEMB     59       CHL1     H14      HGA1     0.900000E-01   1.00800           0
      6642 MEMB     59       CHL1     C15      CRL2    -0.180000       12.0110           0
      6643 MEMB     59       CHL1     H15A     HGA2     0.900000E-01   1.00800           0
      6644 MEMB     59       CHL1     H15B     HGA2     0.900000E-01   1.00800           0
      6645 MEMB     59       CHL1     C16      CRL2    -0.180000       12.0110           0
      6646 MEMB     59       CHL1     H16A     HGA2     0.900000E-01   1.00800           0
      6647 MEMB     59       CHL1     H16B     HGA2     0.900000E-01   1.00800           0
      6648 MEMB     59       CHL1     C17      CRL1    -0.900000E-01   12.0110           0
      6649 MEMB     59       CHL1     H17      HGA1     0.900000E-01   1.00800           0
      6650 MEMB     59       CHL1     C13      CRL1      0.00000       12.0110           0
      6651 MEMB     59       CHL1     C18      CTL3    -0.270000       12.0110           0
      6652 MEMB     59       CHL1     H18A     HAL3     0.900000E-01   1.00800           0
      6653 MEMB     59       CHL1     H18B     HAL3     0.900000E-01   1.00800           0
      6654 MEMB     59       CHL1     H18C     HAL3     0.900000E-01   1.00800           0
      6655 MEMB     59       CHL1     C12      CRL2    -0.180000       12.0110           0
      6656 MEMB     59       CHL1     H12A     HGA2     0.900000E-01   1.00800           0
      6657 MEMB     59       CHL1     H12B     HGA2     0.900000E-01   1.00800           0
      6658 MEMB     59       CHL1     C11      CRL2    -0.180000       12.0110           0
      6659 MEMB     59       CHL1     H11A     HGA2     0.900000E-01   1.00800           0
      6660 MEMB     59       CHL1     H11B     HGA2     0.900000E-01   1.00800           0
      6661 MEMB     59       CHL1     C9       CRL1    -0.900000E-01   12.0110           0
      6662 MEMB     59       CHL1     H9       HGA1     0.900000E-01   1.00800           0
      6663 MEMB     59       CHL1     C10      CRL1      0.00000       12.0110           0
      6664 MEMB     59       CHL1     C19      CTL3    -0.270000       12.0110           0
      6665 MEMB     59       CHL1     H19A     HAL3     0.900000E-01   1.00800           0
      6666 MEMB     59       CHL1     H19B     HAL3     0.900000E-01   1.00800           0
      6667 MEMB     59       CHL1     H19C     HAL3     0.900000E-01   1.00800           0
      6668 MEMB     59       CHL1     C1       CRL2    -0.180000       12.0110           0
      6669 MEMB     59       CHL1     H1A      HGA2     0.900000E-01   1.00800           0
      6670 MEMB     59       CHL1     H1B      HGA2     0.900000E-01   1.00800           0
      6671 MEMB     59       CHL1     C2       CRL2    -0.180000       12.0110           0
      6672 MEMB     59       CHL1     H2A      HGA2     0.900000E-01   1.00800           0
      6673 MEMB     59       CHL1     H2B      HGA2     0.900000E-01   1.00800           0
      6674 MEMB     59       CHL1     C20      CTL1    -0.900000E-01   12.0110           0
      6675 MEMB     59       CHL1     H20      HAL1     0.900000E-01   1.00800           0
      6676 MEMB     59       CHL1     C21      CTL3    -0.270000       12.0110           0
      6677 MEMB     59       CHL1     H21A     HAL3     0.900000E-01   1.00800           0
      6678 MEMB     59       CHL1     H21B     HAL3     0.900000E-01   1.00800           0
      6679 MEMB     59       CHL1     H21C     HAL3     0.900000E-01   1.00800           0
      6680 MEMB     59       CHL1     C22      CTL2    -0.180000       12.0110           0
      6681 MEMB     59       CHL1     H22A     HAL2     0.900000E-01   1.00800           0
      6682 MEMB     59       CHL1     H22B     HAL2     0.900000E-01   1.00800           0
      6683 MEMB     59       CHL1     C23      CTL2    -0.180000       12.0110           0
      6684 MEMB     59       CHL1     H23A     HAL2     0.900000E-01   1.00800           0
      6685 MEMB     59       CHL1     H23B     HAL2     0.900000E-01   1.00800           0
      6686 MEMB     59       CHL1     C24      CTL2    -0.180000       12.0110           0
      6687 MEMB     59       CHL1     H24A     HAL2     0.900000E-01   1.00800           0
      6688 MEMB     59       CHL1     H24B     HAL2     0.900000E-01   1.00800           0
      6689 MEMB     59       CHL1     C25      CTL1    -0.900000E-01   12.0110           0
      6690 MEMB     59       CHL1     H25      HAL1     0.900000E-01   1.00800           0
      6691 MEMB     59       CHL1     C26      CTL3    -0.270000       12.0110           0
      6692 MEMB     59       CHL1     H26A     HAL3     0.900000E-01   1.00800           0
      6693 MEMB     59       CHL1     H26B     HAL3     0.900000E-01   1.00800           0
      6694 MEMB     59       CHL1     H26C     HAL3     0.900000E-01   1.00800           0
      6695 MEMB     59       CHL1     C27      CTL3    -0.270000       12.0110           0
      6696 MEMB     59       CHL1     H27A     HAL3     0.900000E-01   1.00800           0
      6697 MEMB     59       CHL1     H27B     HAL3     0.900000E-01   1.00800           0
      6698 MEMB     59       CHL1     H27C     HAL3     0.900000E-01   1.00800           0
      6699 MEMB     60       CHL1     C3       CRL1     0.140000       12.0110           0
      6700 MEMB     60       CHL1     H3       HGA1     0.900000E-01   1.00800           0
      6701 MEMB     60       CHL1     O3       OHL     -0.660000       15.9994           0
      6702 MEMB     60       CHL1     H3'      HOL      0.430000       1.00800           0
      6703 MEMB     60       CHL1     C4       CRL2    -0.180000       12.0110           0
      6704 MEMB     60       CHL1     H4A      HGA2     0.900000E-01   1.00800           0
      6705 MEMB     60       CHL1     H4B      HGA2     0.900000E-01   1.00800           0
      6706 MEMB     60       CHL1     C5       CEL1      0.00000       12.0110           0
      6707 MEMB     60       CHL1     C6       CEL1    -0.150000       12.0110           0
      6708 MEMB     60       CHL1     H6       HEL1     0.150000       1.00800           0
      6709 MEMB     60       CHL1     C7       CRL2    -0.180000       12.0110           0
      6710 MEMB     60       CHL1     H7A      HGA2     0.900000E-01   1.00800           0
      6711 MEMB     60       CHL1     H7B      HGA2     0.900000E-01   1.00800           0
      6712 MEMB     60       CHL1     C8       CRL1    -0.900000E-01   12.0110           0
      6713 MEMB     60       CHL1     H8       HGA1     0.900000E-01   1.00800           0
      6714 MEMB     60       CHL1     C14      CRL1    -0.900000E-01   12.0110           0
      6715 MEMB     60       CHL1     H14      HGA1     0.900000E-01   1.00800           0
      6716 MEMB     60       CHL1     C15      CRL2    -0.180000       12.0110           0
      6717 MEMB     60       CHL1     H15A     HGA2     0.900000E-01   1.00800           0
      6718 MEMB     60       CHL1     H15B     HGA2     0.900000E-01   1.00800           0
      6719 MEMB     60       CHL1     C16      CRL2    -0.180000       12.0110           0
      6720 MEMB     60       CHL1     H16A     HGA2     0.900000E-01   1.00800           0
      6721 MEMB     60       CHL1     H16B     HGA2     0.900000E-01   1.00800           0
      6722 MEMB     60       CHL1     C17      CRL1    -0.900000E-01   12.0110           0
      6723 MEMB     60       CHL1     H17      HGA1     0.900000E-01   1.00800           0
      6724 MEMB     60       CHL1     C13      CRL1      0.00000       12.0110           0
      6725 MEMB     60       CHL1     C18      CTL3    -0.270000       12.0110           0
      6726 MEMB     60       CHL1     H18A     HAL3     0.900000E-01   1.00800           0
      6727 MEMB     60       CHL1     H18B     HAL3     0.900000E-01   1.00800           0
      6728 MEMB     60       CHL1     H18C     HAL3     0.900000E-01   1.00800           0
      6729 MEMB     60       CHL1     C12      CRL2    -0.180000       12.0110           0
      6730 MEMB     60       CHL1     H12A     HGA2     0.900000E-01   1.00800           0
      6731 MEMB     60       CHL1     H12B     HGA2     0.900000E-01   1.00800           0
      6732 MEMB     60       CHL1     C11      CRL2    -0.180000       12.0110           0
      6733 MEMB     60       CHL1     H11A     HGA2     0.900000E-01   1.00800           0
      6734 MEMB     60       CHL1     H11B     HGA2     0.900000E-01   1.00800           0
      6735 MEMB     60       CHL1     C9       CRL1    -0.900000E-01   12.0110           0
      6736 MEMB     60       CHL1     H9       HGA1     0.900000E-01   1.00800           0
      6737 MEMB     60       CHL1     C10      CRL1      0.00000       12.0110           0
      6738 MEMB     60       CHL1     C19      CTL3    -0.270000       12.0110           0
      6739 MEMB     60       CHL1     H19A     HAL3     0.900000E-01   1.00800           0
      6740 MEMB     60       CHL1     H19B     HAL3     0.900000E-01   1.00800           0
      6741 MEMB     60       CHL1     H19C     HAL3     0.900000E-01   1.00800           0
      6742 MEMB     60       CHL1     C1       CRL2    -0.180000       12.0110           0
      6743 MEMB     60       CHL1     H1A      HGA2     0.900000E-01   1.00800           0
      6744 MEMB     60       CHL1     H1B      HGA2     0.900000E-01   1.00800           0
      6745 MEMB     60       CHL1     C2       CRL2    -0.180000       12.0110           0
      6746 MEMB     60       CHL1     H2A      HGA2     0.900000E-01   1.00800           0
      6747 MEMB     60       CHL1     H2B      HGA2     0.900000E-01   1.00800           0
      6748 MEMB     60       CHL1     C20      CTL1    -0.900000E-01   12.0110           0
      6749 MEMB     60       CHL1     H20      HAL1     0.900000E-01   1.00800           0
      6750 MEMB     60       CHL1     C21      CTL3    -0.270000       12.0110           0
      6751 MEMB     60       CHL1     H21A     HAL3     0.900000E-01   1.00800           0
      6752 MEMB     60       CHL1     H21B     HAL3     0.900000E-01   1.00800           0
      6753 MEMB     60       CHL1     H21C     HAL3     0.900000E-01   1.00800           0
      6754 MEMB     60       CHL1     C22      CTL2    -0.180000       12.0110           0
      6755 MEMB     60       CHL1     H22A     HAL2     0.900000E-01   1.00800           0
      6756 MEMB     60       CHL1     H22B     HAL2     0.900000E-01   1.00800           0
      6757 MEMB     60       CHL1     C23      CTL2    -0.180000       12.0110           0
      6758 MEMB     60       CHL1     H23A     HAL2     0.900000E-01   1.00800           0
      6759 MEMB     60       CHL1     H23B     HAL2     0.900000E-01   1.00800           0
      6760 MEMB     60       CHL1     C24      CTL2    -0.180000       12.0110           0
      6761 MEMB     60       CHL1     H24A     HAL2     0.900000E-01   1.00800           0
      6762 MEMB     60       CHL1     H24B     HAL2     0.900000E-01   1.00800           0
      6763 MEMB     60       CHL1     C25      CTL1    -0.900000E-01   12.0110           0
      6764 MEMB     60       CHL1     H25      HAL1     0.900000E-01   1.00800           0
      6765 MEMB     60       CHL1     C26      CTL3    -0.270000       12.0110           0
      6766 MEMB     60       CHL1     H26A     HAL3     0.900000E-01   1.00800           0
      6767 MEMB     60       CHL1     H26B     HAL3     0.900000E-01   1.00800           0
      6768 MEMB     60       CHL1     H26C     HAL3     0.900000E-01   1.00800           0
      6769 MEMB     60       CHL1     C27      CTL3    -0.270000       12.0110           0
      6770 MEMB     60       CHL1     H27A     HAL3     0.900000E-01   1.00800           0
      6771 MEMB     60       CHL1     H27B     HAL3     0.900000E-01   1.00800           0
      6772 MEMB     60       CHL1     H27C     HAL3     0.900000E-01   1.00800           0
      6773 MEMB     61       CHL1     C3       CRL1     0.140000       12.0110           0
      6774 MEMB     61       CHL1     H3       HGA1     0.900000E-01   1.00800           0
      6775 MEMB     61       CHL1     O3       OHL     -0.660000       15.9994           0
      6776 MEMB     61       CHL1     H3'      HOL      0.430000       1.00800           0
      6777 MEMB     61       CHL1     C4       CRL2    -0.180000       12.0110           0
      6778 MEMB     61       CHL1     H4A      HGA2     0.900000E-01   1.00800           0
      6779 MEMB     61       CHL1     H4B      HGA2     0.900000E-01   1.00800           0
      6780 MEMB     61       CHL1     C5       CEL1      0.00000       12.0110           0
      6781 MEMB     61       CHL1     C6       CEL1    -0.150000       12.0110           0
      6782 MEMB     61       CHL1     H6       HEL1     0.150000       1.00800           0
      6783 MEMB     61       CHL1     C7       CRL2    -0.180000       12.0110           0
      6784 MEMB     61       CHL1     H7A      HGA2     0.900000E-01   1.00800           0
      6785 MEMB     61       CHL1     H7B      HGA2     0.900000E-01   1.00800           0
      6786 MEMB     61       CHL1     C8       CRL1    -0.900000E-01   12.0110           0
      6787 MEMB     61       CHL1     H8       HGA1     0.900000E-01   1.00800           0
      6788 MEMB     61       CHL1     C14      CRL1    -0.900000E-01   12.0110           0
      6789 MEMB     61       CHL1     H14      HGA1     0.900000E-01   1.00800           0
      6790 MEMB     61       CHL1     C15      CRL2    -0.180000       12.0110           0
      6791 MEMB     61       CHL1     H15A     HGA2     0.900000E-01   1.00800           0
      6792 MEMB     61       CHL1     H15B     HGA2     0.900000E-01   1.00800           0
      6793 MEMB     61       CHL1     C16      CRL2    -0.180000       12.0110           0
      6794 MEMB     61       CHL1     H16A     HGA2     0.900000E-01   1.00800           0
      6795 MEMB     61       CHL1     H16B     HGA2     0.900000E-01   1.00800           0
      6796 MEMB     61       CHL1     C17      CRL1    -0.900000E-01   12.0110           0
      6797 MEMB     61       CHL1     H17      HGA1     0.900000E-01   1.00800           0
      6798 MEMB     61       CHL1     C13      CRL1      0.00000       12.0110           0
      6799 MEMB     61       CHL1     C18      CTL3    -0.270000       12.0110           0
      6800 MEMB     61       CHL1     H18A     HAL3     0.900000E-01   1.00800           0
      6801 MEMB     61       CHL1     H18B     HAL3     0.900000E-01   1.00800           0
      6802 MEMB     61       CHL1     H18C     HAL3     0.900000E-01   1.00800           0
      6803 MEMB     61       CHL1     C12      CRL2    -0.180000       12.0110           0
      6804 MEMB     61       CHL1     H12A     HGA2     0.900000E-01   1.00800           0
      6805 MEMB     61       CHL1     H12B     HGA2     0.900000E-01   1.00800           0
      6806 MEMB     61       CHL1     C11      CRL2    -0.180000       12.0110           0
      6807 MEMB     61       CHL1     H11A     HGA2     0.900000E-01   1.00800           0
      6808 MEMB     61       CHL1     H11B     HGA2     0.900000E-01   1.00800           0
      6809 MEMB     61       CHL1     C9       CRL1    -0.900000E-01   12.0110           0
      6810 MEMB     61       CHL1     H9       HGA1     0.900000E-01   1.00800           0
      6811 MEMB     61       CHL1     C10      CRL1      0.00000       12.0110           0
      6812 MEMB     61       CHL1     C19      CTL3    -0.270000       12.0110           0
      6813 MEMB     61       CHL1     H19A     HAL3     0.900000E-01   1.00800           0
      6814 MEMB     61       CHL1     H19B     HAL3     0.900000E-01   1.00800           0
      6815 MEMB     61       CHL1     H19C     HAL3     0.900000E-01   1.00800           0
      6816 MEMB     61       CHL1     C1       CRL2    -0.180000       12.0110           0
      6817 MEMB     61       CHL1     H1A      HGA2     0.900000E-01   1.00800           0
      6818 MEMB     61       CHL1     H1B      HGA2     0.900000E-01   1.00800           0
      6819 MEMB     61       CHL1     C2       CRL2    -0.180000       12.0110           0
      6820 MEMB     61       CHL1     H2A      HGA2     0.900000E-01   1.00800           0
      6821 MEMB     61       CHL1     H2B      HGA2     0.900000E-01   1.00800           0
      6822 MEMB     61       CHL1     C20      CTL1    -0.900000E-01   12.0110           0
      6823 MEMB     61       CHL1     H20      HAL1     0.900000E-01   1.00800           0
      6824 MEMB     61       CHL1     C21      CTL3    -0.270000       12.0110           0
      6825 MEMB     61       CHL1     H21A     HAL3     0.900000E-01   1.00800           0
      6826 MEMB     61       CHL1     H21B     HAL3     0.900000E-01   1.00800           0
      6827 MEMB     61       CHL1     H21C     HAL3     0.900000E-01   1.00800           0
      6828 MEMB     61       CHL1     C22      CTL2    -0.180000       12.0110           0
      6829 MEMB     61       CHL1     H22A     HAL2     0.900000E-01   1.00800           0
      6830 MEMB     61       CHL1     H22B     HAL2     0.900000E-01   1.00800           0
      6831 MEMB     61       CHL1     C23      CTL2    -0.180000       12.0110           0
      6832 MEMB     61       CHL1     H23A     HAL2     0.900000E-01   1.00800           0
      6833 MEMB     61       CHL1     H23B     HAL2     0.900000E-01   1.00800           0
      6834 MEMB     61       CHL1     C24      CTL2    -0.180000       12.0110           0
      6835 MEMB     61       CHL1     H24A     HAL2     0.900000E-01   1.00800           0
      6836 MEMB     61       CHL1     H24B     HAL2     0.900000E-01   1.00800           0
      6837 MEMB     61       CHL1     C25      CTL1    -0.900000E-01   12.0110           0
      6838 MEMB     61       CHL1     H25      HAL1     0.900000E-01   1.00800           0
      6839 MEMB     61       CHL1     C26      CTL3    -0.270000       12.0110           0
      6840 MEMB     61       CHL1     H26A     HAL3     0.900000E-01   1.00800           0
      6841 MEMB     61       CHL1     H26B     HAL3     0.900000E-01   1.00800           0
      6842 MEMB     61       CHL1     H26C     HAL3     0.900000E-01   1.00800           0
      6843 MEMB     61       CHL1     C27      CTL3    -0.270000       12.0110           0
      6844 MEMB     61       CHL1     H27A     HAL3     0.900000E-01   1.00800           0
      6845 MEMB     61       CHL1     H27B     HAL3     0.900000E-01   1.00800           0
      6846 MEMB     61       CHL1     H27C     HAL3     0.900000E-01   1.00800           0
      6847 MEMB     62       CHL1     C3       CRL1     0.140000       12.0110           0
      6848 MEMB     62       CHL1     H3       HGA1     0.900000E-01   1.00800           0
      6849 MEMB     62       CHL1     O3       OHL     -0.660000       15.9994           0
      6850 MEMB     62       CHL1     H3'      HOL      0.430000       1.00800           0
      6851 MEMB     62       CHL1     C4       CRL2    -0.180000       12.0110           0
      6852 MEMB     62       CHL1     H4A      HGA2     0.900000E-01   1.00800           0
      6853 MEMB     62       CHL1     H4B      HGA2     0.900000E-01   1.00800           0
      6854 MEMB     62       CHL1     C5       CEL1      0.00000       12.0110           0
      6855 MEMB     62       CHL1     C6       CEL1    -0.150000       12.0110           0
      6856 MEMB     62       CHL1     H6       HEL1     0.150000       1.00800           0
      6857 MEMB     62       CHL1     C7       CRL2    -0.180000       12.0110           0
      6858 MEMB     62       CHL1     H7A      HGA2     0.900000E-01   1.00800           0
      6859 MEMB     62       CHL1     H7B      HGA2     0.900000E-01   1.00800           0
      6860 MEMB     62       CHL1     C8       CRL1    -0.900000E-01   12.0110           0
      6861 MEMB     62       CHL1     H8       HGA1     0.900000E-01   1.00800           0
      6862 MEMB     62       CHL1     C14      CRL1    -0.900000E-01   12.0110           0
      6863 MEMB     62       CHL1     H14      HGA1     0.900000E-01   1.00800           0
      6864 MEMB     62       CHL1     C15      CRL2    -0.180000       12.0110           0
      6865 MEMB     62       CHL1     H15A     HGA2     0.900000E-01   1.00800           0
      6866 MEMB     62       CHL1     H15B     HGA2     0.900000E-01   1.00800           0
      6867 MEMB     62       CHL1     C16      CRL2    -0.180000       12.0110           0
      6868 MEMB     62       CHL1     H16A     HGA2     0.900000E-01   1.00800           0
      6869 MEMB     62       CHL1     H16B     HGA2     0.900000E-01   1.00800           0
      6870 MEMB     62       CHL1     C17      CRL1    -0.900000E-01   12.0110           0
      6871 MEMB     62       CHL1     H17      HGA1     0.900000E-01   1.00800           0
      6872 MEMB     62       CHL1     C13      CRL1      0.00000       12.0110           0
      6873 MEMB     62       CHL1     C18      CTL3    -0.270000       12.0110           0
      6874 MEMB     62       CHL1     H18A     HAL3     0.900000E-01   1.00800           0
      6875 MEMB     62       CHL1     H18B     HAL3     0.900000E-01   1.00800           0
      6876 MEMB     62       CHL1     H18C     HAL3     0.900000E-01   1.00800           0
      6877 MEMB     62       CHL1     C12      CRL2    -0.180000       12.0110           0
      6878 MEMB     62       CHL1     H12A     HGA2     0.900000E-01   1.00800           0
      6879 MEMB     62       CHL1     H12B     HGA2     0.900000E-01   1.00800           0
      6880 MEMB     62       CHL1     C11      CRL2    -0.180000       12.0110           0
      6881 MEMB     62       CHL1     H11A     HGA2     0.900000E-01   1.00800           0
      6882 MEMB     62       CHL1     H11B     HGA2     0.900000E-01   1.00800           0
      6883 MEMB     62       CHL1     C9       CRL1    -0.900000E-01   12.0110           0
      6884 MEMB     62       CHL1     H9       HGA1     0.900000E-01   1.00800           0
      6885 MEMB     62       CHL1     C10      CRL1      0.00000       12.0110           0
      6886 MEMB     62       CHL1     C19      CTL3    -0.270000       12.0110           0
      6887 MEMB     62       CHL1     H19A     HAL3     0.900000E-01   1.00800           0
      6888 MEMB     62       CHL1     H19B     HAL3     0.900000E-01   1.00800           0
      6889 MEMB     62       CHL1     H19C     HAL3     0.900000E-01   1.00800           0
      6890 MEMB     62       CHL1     C1       CRL2    -0.180000       12.0110           0
      6891 MEMB     62       CHL1     H1A      HGA2     0.900000E-01   1.00800           0
      6892 MEMB     62       CHL1     H1B      HGA2     0.900000E-01   1.00800           0
      6893 MEMB     62       CHL1     C2       CRL2    -0.180000       12.0110           0
      6894 MEMB     62       CHL1     H2A      HGA2     0.900000E-01   1.00800           0
      6895 MEMB     62       CHL1     H2B      HGA2     0.900000E-01   1.00800           0
      6896 MEMB     62       CHL1     C20      CTL1    -0.900000E-01   12.0110           0
      6897 MEMB     62       CHL1     H20      HAL1     0.900000E-01   1.00800           0
      6898 MEMB     62       CHL1     C21      CTL3    -0.270000       12.0110           0
      6899 MEMB     62       CHL1     H21A     HAL3     0.900000E-01   1.00800           0
      6900 MEMB     62       CHL1     H21B     HAL3     0.900000E-01   1.00800           0
      6901 MEMB     62       CHL1     H21C     HAL3     0.900000E-01   1.00800           0
      6902 MEMB     62       CHL1     C22      CTL2    -0.180000       12.0110           0
      6903 MEMB     62       CHL1     H22A     HAL2     0.900000E-01   1.00800           0
      6904 MEMB     62       CHL1     H22B     HAL2     0.900000E-01   1.00800           0
      6905 MEMB     62       CHL1     C23      CTL2    -0.180000       12.0110           0
      6906 MEMB     62       CHL1     H23A     HAL2     0.900000E-01   1.00800           0
      6907 MEMB     62       CHL1     H23B     HAL2     0.900000E-01   1.00800           0
      6908 MEMB     62       CHL1     C24      CTL2    -0.180000       12.0110           0
      6909 MEMB     62       CHL1     H24A     HAL2     0.900000E-01   1.00800           0
      6910 MEMB     62       CHL1     H24B     HAL2     0.900000E-01   1.00800           0
      6911 MEMB     62       CHL1     C25      CTL1    -0.900000E-01   12.0110           0
      6912 MEMB     62       CHL1     H25      HAL1     0.900000E-01   1.00800           0
      6913 MEMB     62       CHL1     C26      CTL3    -0.270000       12.0110           0
      6914 MEMB     62       CHL1     H26A     HAL3     0.900000E-01   1.00800           0
      6915 MEMB     62       CHL1     H26B     HAL3     0.900000E-01   1.00800           0
      6916 MEMB     62       CHL1     H26C     HAL3     0.900000E-01   1.00800           0
      6917 MEMB     62       CHL1     C27      CTL3    -0.270000       12.0110           0
      6918 MEMB     62       CHL1     H27A     HAL3     0.900000E-01   1.00800           0
      6919 MEMB     62       CHL1     H27B     HAL3     0.900000E-01   1.00800           0
      6920 MEMB     62       CHL1     H27C     HAL3     0.900000E-01   1.00800           0
      6921 MEMB     63       SAPI     C12      CC3161   0.140000       12.0110           0
      6922 MEMB     63       SAPI     H2       HCA1     0.900000E-01   1.00800           0
      6923 MEMB     63       SAPI     O2       OC311   -0.650000       15.9994           0
      6924 MEMB     63       SAPI     HO2      HCP1     0.420000       1.00800           0
      6925 MEMB     63       SAPI     C13      CC3161   0.140000       12.0110           0
      6926 MEMB     63       SAPI     H3       HCA1     0.900000E-01   1.00800           0
      6927 MEMB     63       SAPI     O3       OC311   -0.650000       15.9994           0
      6928 MEMB     63       SAPI     HO3      HCP1     0.420000       1.00800           0
      6929 MEMB     63       SAPI     C14      CC3161   0.140000       12.0110           0
      6930 MEMB     63       SAPI     H4       HCA1     0.900000E-01   1.00800           0
      6931 MEMB     63       SAPI     O4       OC311   -0.650000       15.9994           0
      6932 MEMB     63       SAPI     HO4      HCP1     0.420000       1.00800           0
      6933 MEMB     63       SAPI     C15      CC3161   0.140000       12.0110           0
      6934 MEMB     63       SAPI     H5       HCA1     0.900000E-01   1.00800           0
      6935 MEMB     63       SAPI     O5       OC311   -0.650000       15.9994           0
      6936 MEMB     63       SAPI     HO5      HCP1     0.420000       1.00800           0
      6937 MEMB     63       SAPI     C16      CC3161   0.140000       12.0110           0
      6938 MEMB     63       SAPI     H6       HCA1     0.900000E-01   1.00800           0
      6939 MEMB     63       SAPI     O6       OC311   -0.650000       15.9994           0
      6940 MEMB     63       SAPI     HO6      HCP1     0.420000       1.00800           0
      6941 MEMB     63       SAPI     C11      CC3161  -0.800000E-01   12.0110           0
      6942 MEMB     63       SAPI     H1       HCA1     0.900000E-01   1.00800           0
      6943 MEMB     63       SAPI     P        PL        1.59000       30.9740           0
      6944 MEMB     63       SAPI     O13      O2L     -0.780000       15.9994           0
      6945 MEMB     63       SAPI     O14      O2L     -0.780000       15.9994           0
      6946 MEMB     63       SAPI     O12      OC30P   -0.570000       15.9994           0
      6947 MEMB     63       SAPI     O11      OSLP    -0.570000       15.9994           0
      6948 MEMB     63       SAPI     C1       CTL2    -0.800000E-01   12.0110           0
      6949 MEMB     63       SAPI     HA       HAL2     0.900000E-01   1.00800           0
      6950 MEMB     63       SAPI     HB       HAL2     0.900000E-01   1.00800           0
      6951 MEMB     63       SAPI     C2       CTL1     0.170000       12.0110           0
      6952 MEMB     63       SAPI     HS       HAL1     0.900000E-01   1.00800           0
      6953 MEMB     63       SAPI     O21      OSL     -0.490000       15.9994           0
      6954 MEMB     63       SAPI     C21      CL       0.900000       12.0110           0
      6955 MEMB     63       SAPI     O22      OBL     -0.630000       15.9994           0
      6956 MEMB     63       SAPI     C22      CTL2    -0.220000       12.0110           0
      6957 MEMB     63       SAPI     H2R      HAL2     0.900000E-01   1.00800           0
      6958 MEMB     63       SAPI     H2S      HAL2     0.900000E-01   1.00800           0
      6959 MEMB     63       SAPI     C3       CTL2     0.800000E-01   12.0110           0
      6960 MEMB     63       SAPI     HX       HAL2     0.900000E-01   1.00800           0
      6961 MEMB     63       SAPI     HY       HAL2     0.900000E-01   1.00800           0
      6962 MEMB     63       SAPI     O31      OSL     -0.490000       15.9994           0
      6963 MEMB     63       SAPI     C31      CL       0.900000       12.0110           0
      6964 MEMB     63       SAPI     O32      OBL     -0.630000       15.9994           0
      6965 MEMB     63       SAPI     C32      CTL2    -0.220000       12.0110           0
      6966 MEMB     63       SAPI     H2X      HAL2     0.900000E-01   1.00800           0
      6967 MEMB     63       SAPI     H2Y      HAL2     0.900000E-01   1.00800           0
      6968 MEMB     63       SAPI     C23      CTL2    -0.180000       12.0110           0
      6969 MEMB     63       SAPI     H3R      HAL2     0.900000E-01   1.00800           0
      6970 MEMB     63       SAPI     H3S      HAL2     0.900000E-01   1.00800           0
      6971 MEMB     63       SAPI     C24      CTL2    -0.180000       12.0110           0
      6972 MEMB     63       SAPI     H4R      HAL2     0.900000E-01   1.00800           0
      6973 MEMB     63       SAPI     H4S      HAL2     0.900000E-01   1.00800           0
      6974 MEMB     63       SAPI     C25      CEL1    -0.150000       12.0110           0
      6975 MEMB     63       SAPI     H5R      HEL1     0.150000       1.00800           0
      6976 MEMB     63       SAPI     C26      CEL1    -0.150000       12.0110           0
      6977 MEMB     63       SAPI     H6R      HEL1     0.150000       1.00800           0
      6978 MEMB     63       SAPI     C27      CTL2    -0.180000       12.0110           0
      6979 MEMB     63       SAPI     H7R      HAL2     0.900000E-01   1.00800           0
      6980 MEMB     63       SAPI     H7S      HAL2     0.900000E-01   1.00800           0
      6981 MEMB     63       SAPI     C28      CEL1    -0.150000       12.0110           0
      6982 MEMB     63       SAPI     H8R      HEL1     0.150000       1.00800           0
      6983 MEMB     63       SAPI     C29      CEL1    -0.150000       12.0110           0
      6984 MEMB     63       SAPI     H9R      HEL1     0.150000       1.00800           0
      6985 MEMB     63       SAPI     C210     CTL2    -0.180000       12.0110           0
      6986 MEMB     63       SAPI     H10R     HAL2     0.900000E-01   1.00800           0
      6987 MEMB     63       SAPI     H10S     HAL2     0.900000E-01   1.00800           0
      6988 MEMB     63       SAPI     C211     CEL1    -0.150000       12.0110           0
      6989 MEMB     63       SAPI     H11R     HEL1     0.150000       1.00800           0
      6990 MEMB     63       SAPI     C212     CEL1    -0.150000       12.0110           0
      6991 MEMB     63       SAPI     H12R     HEL1     0.150000       1.00800           0
      6992 MEMB     63       SAPI     C213     CTL2    -0.180000       12.0110           0
      6993 MEMB     63       SAPI     H13R     HAL2     0.900000E-01   1.00800           0
      6994 MEMB     63       SAPI     H13S     HAL2     0.900000E-01   1.00800           0
      6995 MEMB     63       SAPI     C214     CEL1    -0.150000       12.0110           0
      6996 MEMB     63       SAPI     H14R     HEL1     0.150000       1.00800           0
      6997 MEMB     63       SAPI     C215     CEL1    -0.150000       12.0110           0
      6998 MEMB     63       SAPI     H15R     HEL1     0.150000       1.00800           0
      6999 MEMB     63       SAPI     C216     CTL2    -0.180000       12.0110           0
      7000 MEMB     63       SAPI     H16R     HAL2     0.900000E-01   1.00800           0
      7001 MEMB     63       SAPI     H16S     HAL2     0.900000E-01   1.00800           0
      7002 MEMB     63       SAPI     C217     CTL2    -0.180000       12.0110           0
      7003 MEMB     63       SAPI     H17R     HAL2     0.900000E-01   1.00800           0
      7004 MEMB     63       SAPI     H17S     HAL2     0.900000E-01   1.00800           0
      7005 MEMB     63       SAPI     C218     CTL2    -0.180000       12.0110           0
      7006 MEMB     63       SAPI     H18R     HAL2     0.900000E-01   1.00800           0
      7007 MEMB     63       SAPI     H18S     HAL2     0.900000E-01   1.00800           0
      7008 MEMB     63       SAPI     C219     CTL2    -0.180000       12.0110           0
      7009 MEMB     63       SAPI     H19R     HAL2     0.900000E-01   1.00800           0
      7010 MEMB     63       SAPI     H19S     HAL2     0.900000E-01   1.00800           0
      7011 MEMB     63       SAPI     C220     CTL3    -0.270000       12.0110           0
      7012 MEMB     63       SAPI     H20R     HAL3     0.900000E-01   1.00800           0
      7013 MEMB     63       SAPI     H20S     HAL3     0.900000E-01   1.00800           0
      7014 MEMB     63       SAPI     H20T     HAL3     0.900000E-01   1.00800           0
      7015 MEMB     63       SAPI     C33      CTL2    -0.180000       12.0110           0
      7016 MEMB     63       SAPI     H3X      HAL2     0.900000E-01   1.00800           0
      7017 MEMB     63       SAPI     H3Y      HAL2     0.900000E-01   1.00800           0
      7018 MEMB     63       SAPI     C34      CTL2    -0.180000       12.0110           0
      7019 MEMB     63       SAPI     H4X      HAL2     0.900000E-01   1.00800           0
      7020 MEMB     63       SAPI     H4Y      HAL2     0.900000E-01   1.00800           0
      7021 MEMB     63       SAPI     C35      CTL2    -0.180000       12.0110           0
      7022 MEMB     63       SAPI     H5X      HAL2     0.900000E-01   1.00800           0
      7023 MEMB     63       SAPI     H5Y      HAL2     0.900000E-01   1.00800           0
      7024 MEMB     63       SAPI     C36      CTL2    -0.180000       12.0110           0
      7025 MEMB     63       SAPI     H6X      HAL2     0.900000E-01   1.00800           0
      7026 MEMB     63       SAPI     H6Y      HAL2     0.900000E-01   1.00800           0
      7027 MEMB     63       SAPI     C37      CTL2    -0.180000       12.0110           0
      7028 MEMB     63       SAPI     H7X      HAL2     0.900000E-01   1.00800           0
      7029 MEMB     63       SAPI     H7Y      HAL2     0.900000E-01   1.00800           0
      7030 MEMB     63       SAPI     C38      CTL2    -0.180000       12.0110           0
      7031 MEMB     63       SAPI     H8X      HAL2     0.900000E-01   1.00800           0
      7032 MEMB     63       SAPI     H8Y      HAL2     0.900000E-01   1.00800           0
      7033 MEMB     63       SAPI     C39      CTL2    -0.180000       12.0110           0
      7034 MEMB     63       SAPI     H9X      HAL2     0.900000E-01   1.00800           0
      7035 MEMB     63       SAPI     H9Y      HAL2     0.900000E-01   1.00800           0
      7036 MEMB     63       SAPI     C310     CTL2    -0.180000       12.0110           0
      7037 MEMB     63       SAPI     H10X     HAL2     0.900000E-01   1.00800           0
      7038 MEMB     63       SAPI     H10Y     HAL2     0.900000E-01   1.00800           0
      7039 MEMB     63       SAPI     C311     CTL2    -0.180000       12.0110           0
      7040 MEMB     63       SAPI     H11X     HAL2     0.900000E-01   1.00800           0
      7041 MEMB     63       SAPI     H11Y     HAL2     0.900000E-01   1.00800           0
      7042 MEMB     63       SAPI     C312     CTL2    -0.180000       12.0110           0
      7043 MEMB     63       SAPI     H12X     HAL2     0.900000E-01   1.00800           0
      7044 MEMB     63       SAPI     H12Y     HAL2     0.900000E-01   1.00800           0
      7045 MEMB     63       SAPI     C313     CTL2    -0.180000       12.0110           0
      7046 MEMB     63       SAPI     H13X     HAL2     0.900000E-01   1.00800           0
      7047 MEMB     63       SAPI     H13Y     HAL2     0.900000E-01   1.00800           0
      7048 MEMB     63       SAPI     C314     CTL2    -0.180000       12.0110           0
      7049 MEMB     63       SAPI     H14X     HAL2     0.900000E-01   1.00800           0
      7050 MEMB     63       SAPI     H14Y     HAL2     0.900000E-01   1.00800           0
      7051 MEMB     63       SAPI     C315     CTL2    -0.180000       12.0110           0
      7052 MEMB     63       SAPI     H15X     HAL2     0.900000E-01   1.00800           0
      7053 MEMB     63       SAPI     H15Y     HAL2     0.900000E-01   1.00800           0
      7054 MEMB     63       SAPI     C316     CTL2    -0.180000       12.0110           0
      7055 MEMB     63       SAPI     H16X     HAL2     0.900000E-01   1.00800           0
      7056 MEMB     63       SAPI     H16Y     HAL2     0.900000E-01   1.00800           0
      7057 MEMB     63       SAPI     C317     CTL2    -0.180000       12.0110           0
      7058 MEMB     63       SAPI     H17X     HAL2     0.900000E-01   1.00800           0
      7059 MEMB     63       SAPI     H17Y     HAL2     0.900000E-01   1.00800           0
      7060 MEMB     63       SAPI     C318     CTL3    -0.270000       12.0110           0
      7061 MEMB     63       SAPI     H18X     HAL3     0.900000E-01   1.00800           0
      7062 MEMB     63       SAPI     H18Y     HAL3     0.900000E-01   1.00800           0
      7063 MEMB     63       SAPI     H18Z     HAL3     0.900000E-01   1.00800           0
      7064 MEMB     64       CHL1     C3       CRL1     0.140000       12.0110           0
      7065 MEMB     64       CHL1     H3       HGA1     0.900000E-01   1.00800           0
      7066 MEMB     64       CHL1     O3       OHL     -0.660000       15.9994           0
      7067 MEMB     64       CHL1     H3'      HOL      0.430000       1.00800           0
      7068 MEMB     64       CHL1     C4       CRL2    -0.180000       12.0110           0
      7069 MEMB     64       CHL1     H4A      HGA2     0.900000E-01   1.00800           0
      7070 MEMB     64       CHL1     H4B      HGA2     0.900000E-01   1.00800           0
      7071 MEMB     64       CHL1     C5       CEL1      0.00000       12.0110           0
      7072 MEMB     64       CHL1     C6       CEL1    -0.150000       12.0110           0
      7073 MEMB     64       CHL1     H6       HEL1     0.150000       1.00800           0
      7074 MEMB     64       CHL1     C7       CRL2    -0.180000       12.0110           0
      7075 MEMB     64       CHL1     H7A      HGA2     0.900000E-01   1.00800           0
      7076 MEMB     64       CHL1     H7B      HGA2     0.900000E-01   1.00800           0
      7077 MEMB     64       CHL1     C8       CRL1    -0.900000E-01   12.0110           0
      7078 MEMB     64       CHL1     H8       HGA1     0.900000E-01   1.00800           0
      7079 MEMB     64       CHL1     C14      CRL1    -0.900000E-01   12.0110           0
      7080 MEMB     64       CHL1     H14      HGA1     0.900000E-01   1.00800           0
      7081 MEMB     64       CHL1     C15      CRL2    -0.180000       12.0110           0
      7082 MEMB     64       CHL1     H15A     HGA2     0.900000E-01   1.00800           0
      7083 MEMB     64       CHL1     H15B     HGA2     0.900000E-01   1.00800           0
      7084 MEMB     64       CHL1     C16      CRL2    -0.180000       12.0110           0
      7085 MEMB     64       CHL1     H16A     HGA2     0.900000E-01   1.00800           0
      7086 MEMB     64       CHL1     H16B     HGA2     0.900000E-01   1.00800           0
      7087 MEMB     64       CHL1     C17      CRL1    -0.900000E-01   12.0110           0
      7088 MEMB     64       CHL1     H17      HGA1     0.900000E-01   1.00800           0
      7089 MEMB     64       CHL1     C13      CRL1      0.00000       12.0110           0
      7090 MEMB     64       CHL1     C18      CTL3    -0.270000       12.0110           0
      7091 MEMB     64       CHL1     H18A     HAL3     0.900000E-01   1.00800           0
      7092 MEMB     64       CHL1     H18B     HAL3     0.900000E-01   1.00800           0
      7093 MEMB     64       CHL1     H18C     HAL3     0.900000E-01   1.00800           0
      7094 MEMB     64       CHL1     C12      CRL2    -0.180000       12.0110           0
      7095 MEMB     64       CHL1     H12A     HGA2     0.900000E-01   1.00800           0
      7096 MEMB     64       CHL1     H12B     HGA2     0.900000E-01   1.00800           0
      7097 MEMB     64       CHL1     C11      CRL2    -0.180000       12.0110           0
      7098 MEMB     64       CHL1     H11A     HGA2     0.900000E-01   1.00800           0
      7099 MEMB     64       CHL1     H11B     HGA2     0.900000E-01   1.00800           0
      7100 MEMB     64       CHL1     C9       CRL1    -0.900000E-01   12.0110           0
      7101 MEMB     64       CHL1     H9       HGA1     0.900000E-01   1.00800           0
      7102 MEMB     64       CHL1     C10      CRL1      0.00000       12.0110           0
      7103 MEMB     64       CHL1     C19      CTL3    -0.270000       12.0110           0
      7104 MEMB     64       CHL1     H19A     HAL3     0.900000E-01   1.00800           0
      7105 MEMB     64       CHL1     H19B     HAL3     0.900000E-01   1.00800           0
      7106 MEMB     64       CHL1     H19C     HAL3     0.900000E-01   1.00800           0
      7107 MEMB     64       CHL1     C1       CRL2    -0.180000       12.0110           0
      7108 MEMB     64       CHL1     H1A      HGA2     0.900000E-01   1.00800           0
      7109 MEMB     64       CHL1     H1B      HGA2     0.900000E-01   1.00800           0
      7110 MEMB     64       CHL1     C2       CRL2    -0.180000       12.0110           0
      7111 MEMB     64       CHL1     H2A      HGA2     0.900000E-01   1.00800           0
      7112 MEMB     64       CHL1     H2B      HGA2     0.900000E-01   1.00800           0
      7113 MEMB     64       CHL1     C20      CTL1    -0.900000E-01   12.0110           0
      7114 MEMB     64       CHL1     H20      HAL1     0.900000E-01   1.00800           0
      7115 MEMB     64       CHL1     C21      CTL3    -0.270000       12.0110           0
      7116 MEMB     64       CHL1     H21A     HAL3     0.900000E-01   1.00800           0
      7117 MEMB     64       CHL1     H21B     HAL3     0.900000E-01   1.00800           0
      7118 MEMB     64       CHL1     H21C     HAL3     0.900000E-01   1.00800           0
      7119 MEMB     64       CHL1     C22      CTL2    -0.180000       12.0110           0
      7120 MEMB     64       CHL1     H22A     HAL2     0.900000E-01   1.00800           0
      7121 MEMB     64       CHL1     H22B     HAL2     0.900000E-01   1.00800           0
      7122 MEMB     64       CHL1     C23      CTL2    -0.180000       12.0110           0
      7123 MEMB     64       CHL1     H23A     HAL2     0.900000E-01   1.00800           0
      7124 MEMB     64       CHL1     H23B     HAL2     0.900000E-01   1.00800           0
      7125 MEMB     64       CHL1     C24      CTL2    -0.180000       12.0110           0
      7126 MEMB     64       CHL1     H24A     HAL2     0.900000E-01   1.00800           0
      7127 MEMB     64       CHL1     H24B     HAL2     0.900000E-01   1.00800           0
      7128 MEMB     64       CHL1     C25      CTL1    -0.900000E-01   12.0110           0
      7129 MEMB     64       CHL1     H25      HAL1     0.900000E-01   1.00800           0
      7130 MEMB     64       CHL1     C26      CTL3    -0.270000       12.0110           0
      7131 MEMB     64       CHL1     H26A     HAL3     0.900000E-01   1.00800           0
      7132 MEMB     64       CHL1     H26B     HAL3     0.900000E-01   1.00800           0
      7133 MEMB     64       CHL1     H26C     HAL3     0.900000E-01   1.00800           0
      7134 MEMB     64       CHL1     C27      CTL3    -0.270000       12.0110           0
      7135 MEMB     64       CHL1     H27A     HAL3     0.900000E-01   1.00800           0
      7136 MEMB     64       CHL1     H27B     HAL3     0.900000E-01   1.00800           0
      7137 MEMB     64       CHL1     H27C     HAL3     0.900000E-01   1.00800           0
      7138 MEMB     65       OSM      N        NTL     -0.600000       14.0070           0
      7139 MEMB     65       OSM      C15      CTL5    -0.350000       12.0110           0
      7140 MEMB     65       OSM      H15A     HL       0.250000       1.00800           0
      7141 MEMB     65       OSM      H15B     HL       0.250000       1.00800           0
      7142 MEMB     65       OSM      H15C     HL       0.250000       1.00800           0
      7143 MEMB     65       OSM      C14      CTL5    -0.350000       12.0110           0
      7144 MEMB     65       OSM      H14A     HL       0.250000       1.00800           0
      7145 MEMB     65       OSM      H14B     HL       0.250000       1.00800           0
      7146 MEMB     65       OSM      H14C     HL       0.250000       1.00800           0
      7147 MEMB     65       OSM      C13      CTL5    -0.350000       12.0110           0
      7148 MEMB     65       OSM      H13A     HL       0.250000       1.00800           0
      7149 MEMB     65       OSM      H13B     HL       0.250000       1.00800           0
      7150 MEMB     65       OSM      H13C     HL       0.250000       1.00800           0
      7151 MEMB     65       OSM      C12      CTL2    -0.100000       12.0110           0
      7152 MEMB     65       OSM      H12A     HL       0.250000       1.00800           0
      7153 MEMB     65       OSM      H12B     HL       0.250000       1.00800           0
      7154 MEMB     65       OSM      C11      CTL2    -0.800000E-01   12.0110           0
      7155 MEMB     65       OSM      H11A     HAL2     0.900000E-01   1.00800           0
      7156 MEMB     65       OSM      H11B     HAL2     0.900000E-01   1.00800           0
      7157 MEMB     65       OSM      P        PL        1.50000       30.9740           0
      7158 MEMB     65       OSM      O13      O2L     -0.780000       15.9994           0
      7159 MEMB     65       OSM      O14      O2L     -0.780000       15.9994           0
      7160 MEMB     65       OSM      O11      OSLP    -0.570000       15.9994           0
      7161 MEMB     65       OSM      O12      OSLP    -0.570000       15.9994           0
      7162 MEMB     65       OSM      C1S      CTL2    -0.800000E-01   12.0110           0
      7163 MEMB     65       OSM      H1S      HAL2     0.900000E-01   1.00800           0
      7164 MEMB     65       OSM      H1T      HAL2     0.900000E-01   1.00800           0
      7165 MEMB     65       OSM      NF       NHL     -0.700000       14.0070           0
      7166 MEMB     65       OSM      HNF      H        0.350000       1.00800           0
      7167 MEMB     65       OSM      C2S      CTL1     0.300000       12.0110           0
      7168 MEMB     65       OSM      H2S      HAL1     0.500000E-01   1.00800           0
      7169 MEMB     65       OSM      C3S      CTO1     0.500000       12.0110           0
      7170 MEMB     65       OSM      H3S      HAL1    -0.110000       1.00800           0
      7171 MEMB     65       OSM      O3       OHL     -0.690000       15.9994           0
      7172 MEMB     65       OSM      HO3      HOL      0.300000       1.00800           0
      7173 MEMB     65       OSM      C4S      CEL3    -0.150000       12.0110           0
      7174 MEMB     65       OSM      H4S      HEL1     0.150000       1.00800           0
      7175 MEMB     65       OSM      C5S      CEL3    -0.150000       12.0110           0
      7176 MEMB     65       OSM      H5S      HEL1     0.150000       1.00800           0
      7177 MEMB     65       OSM      C6S      CTL2    -0.180000       12.0110           0
      7178 MEMB     65       OSM      H6S      HAL2     0.900000E-01   1.00800           0
      7179 MEMB     65       OSM      H6T      HAL2     0.900000E-01   1.00800           0
      7180 MEMB     65       OSM      C7S      CTL2    -0.180000       12.0110           0
      7181 MEMB     65       OSM      H7S      HAL2     0.900000E-01   1.00800           0
      7182 MEMB     65       OSM      H7T      HAL2     0.900000E-01   1.00800           0
      7183 MEMB     65       OSM      C8S      CTL2    -0.180000       12.0110           0
      7184 MEMB     65       OSM      H8S      HAL2     0.900000E-01   1.00800           0
      7185 MEMB     65       OSM      H8T      HAL2     0.900000E-01   1.00800           0
      7186 MEMB     65       OSM      C9S      CTL2    -0.180000       12.0110           0
      7187 MEMB     65       OSM      H9S      HAL2     0.900000E-01   1.00800           0
      7188 MEMB     65       OSM      H9T      HAL2     0.900000E-01   1.00800           0
      7189 MEMB     65       OSM      C10S     CTL2    -0.180000       12.0110           0
      7190 MEMB     65       OSM      H10S     HAL2     0.900000E-01   1.00800           0
      7191 MEMB     65       OSM      H10T     HAL2     0.900000E-01   1.00800           0
      7192 MEMB     65       OSM      C11S     CTL2    -0.180000       12.0110           0
      7193 MEMB     65       OSM      H11S     HAL2     0.900000E-01   1.00800           0
      7194 MEMB     65       OSM      H11T     HAL2     0.900000E-01   1.00800           0
      7195 MEMB     65       OSM      C12S     CTL2    -0.180000       12.0110           0
      7196 MEMB     65       OSM      H12S     HAL2     0.900000E-01   1.00800           0
      7197 MEMB     65       OSM      H12T     HAL2     0.900000E-01   1.00800           0
      7198 MEMB     65       OSM      C13S     CTL2    -0.180000       12.0110           0
      7199 MEMB     65       OSM      H13S     HAL2     0.900000E-01   1.00800           0
      7200 MEMB     65       OSM      H13T     HAL2     0.900000E-01   1.00800           0
      7201 MEMB     65       OSM      C14S     CTL2    -0.180000       12.0110           0
      7202 MEMB     65       OSM      H14S     HAL2     0.900000E-01   1.00800           0
      7203 MEMB     65       OSM      H14T     HAL2     0.900000E-01   1.00800           0
      7204 MEMB     65       OSM      C15S     CTL2    -0.180000       12.0110           0
      7205 MEMB     65       OSM      H15S     HAL2     0.900000E-01   1.00800           0
      7206 MEMB     65       OSM      H15T     HAL2     0.900000E-01   1.00800           0
      7207 MEMB     65       OSM      C16S     CTL2    -0.180000       12.0110           0
      7208 MEMB     65       OSM      H16S     HAL2     0.900000E-01   1.00800           0
      7209 MEMB     65       OSM      H16T     HAL2     0.900000E-01   1.00800           0
      7210 MEMB     65       OSM      C17S     CTL2    -0.180000       12.0110           0
      7211 MEMB     65       OSM      H17S     HAL2     0.900000E-01   1.00800           0
      7212 MEMB     65       OSM      H17T     HAL2     0.900000E-01   1.00800           0
      7213 MEMB     65       OSM      C18S     CTL3    -0.270000       12.0110           0
      7214 MEMB     65       OSM      H18S     HAL3     0.900000E-01   1.00800           0
      7215 MEMB     65       OSM      H18T     HAL3     0.900000E-01   1.00800           0
      7216 MEMB     65       OSM      H18U     HAL3     0.900000E-01   1.00800           0
      7217 MEMB     65       OSM      C1F      C        0.550000       12.0110           0
      7218 MEMB     65       OSM      OF       O       -0.600000       15.9994           0
      7219 MEMB     65       OSM      C2F      CTL2    -0.700000E-01   12.0110           0
      7220 MEMB     65       OSM      H2F      HAL2     0.600000E-01   1.00800           0
      7221 MEMB     65       OSM      H2G      HAL2     0.600000E-01   1.00800           0
      7222 MEMB     65       OSM      C3F      CTL2    -0.180000       12.0110           0
      7223 MEMB     65       OSM      H3F      HAL2     0.900000E-01   1.00800           0
      7224 MEMB     65       OSM      H3G      HAL2     0.900000E-01   1.00800           0
      7225 MEMB     65       OSM      C4F      CTL2    -0.180000       12.0110           0
      7226 MEMB     65       OSM      H4F      HAL2     0.900000E-01   1.00800           0
      7227 MEMB     65       OSM      H4G      HAL2     0.900000E-01   1.00800           0
      7228 MEMB     65       OSM      C5F      CTL2    -0.180000       12.0110           0
      7229 MEMB     65       OSM      H5F      HAL2     0.900000E-01   1.00800           0
      7230 MEMB     65       OSM      H5G      HAL2     0.900000E-01   1.00800           0
      7231 MEMB     65       OSM      C6F      CTL2    -0.180000       12.0110           0
      7232 MEMB     65       OSM      H6F      HAL2     0.900000E-01   1.00800           0
      7233 MEMB     65       OSM      H6G      HAL2     0.900000E-01   1.00800           0
      7234 MEMB     65       OSM      C7F      CTL2    -0.180000       12.0110           0
      7235 MEMB     65       OSM      H7F      HAL2     0.900000E-01   1.00800           0
      7236 MEMB     65       OSM      H7G      HAL2     0.900000E-01   1.00800           0
      7237 MEMB     65       OSM      C8F      CTL2    -0.180000       12.0110           0
      7238 MEMB     65       OSM      H8F      HAL2     0.900000E-01   1.00800           0
      7239 MEMB     65       OSM      H8G      HAL2     0.900000E-01   1.00800           0
      7240 MEMB     65       OSM      C9F      CEL1    -0.150000       12.0110           0
      7241 MEMB     65       OSM      H9F      HEL1     0.150000       1.00800           0
      7242 MEMB     65       OSM      C10F     CEL1    -0.150000       12.0110           0
      7243 MEMB     65       OSM      H10F     HEL1     0.150000       1.00800           0
      7244 MEMB     65       OSM      C11F     CTL2    -0.180000       12.0110           0
      7245 MEMB     65       OSM      H11F     HAL2     0.900000E-01   1.00800           0
      7246 MEMB     65       OSM      H11G     HAL2     0.900000E-01   1.00800           0
      7247 MEMB     65       OSM      C12F     CTL2    -0.180000       12.0110           0
      7248 MEMB     65       OSM      H12F     HAL2     0.900000E-01   1.00800           0
      7249 MEMB     65       OSM      H12G     HAL2     0.900000E-01   1.00800           0
      7250 MEMB     65       OSM      C13F     CTL2    -0.180000       12.0110           0
      7251 MEMB     65       OSM      H13F     HAL2     0.900000E-01   1.00800           0
      7252 MEMB     65       OSM      H13G     HAL2     0.900000E-01   1.00800           0
      7253 MEMB     65       OSM      C14F     CTL2    -0.180000       12.0110           0
      7254 MEMB     65       OSM      H14F     HAL2     0.900000E-01   1.00800           0
      7255 MEMB     65       OSM      H14G     HAL2     0.900000E-01   1.00800           0
      7256 MEMB     65       OSM      C15F     CTL2    -0.180000       12.0110           0
      7257 MEMB     65       OSM      H15F     HAL2     0.900000E-01   1.00800           0
      7258 MEMB     65       OSM      H15G     HAL2     0.900000E-01   1.00800           0
      7259 MEMB     65       OSM      C16F     CTL2    -0.180000       12.0110           0
      7260 MEMB     65       OSM      H16F     HAL2     0.900000E-01   1.00800           0
      7261 MEMB     65       OSM      H16G     HAL2     0.900000E-01   1.00800           0
      7262 MEMB     65       OSM      C17F     CTL2    -0.180000       12.0110           0
      7263 MEMB     65       OSM      H17F     HAL2     0.900000E-01   1.00800           0
      7264 MEMB     65       OSM      H17G     HAL2     0.900000E-01   1.00800           0
      7265 MEMB     65       OSM      C18F     CTL3    -0.270000       12.0110           0
      7266 MEMB     65       OSM      H18F     HAL3     0.900000E-01   1.00800           0
      7267 MEMB     65       OSM      H18G     HAL3     0.900000E-01   1.00800           0
      7268 MEMB     65       OSM      H18H     HAL3     0.900000E-01   1.00800           0
      7269 MEMB     66       SAPS     N        NH3L    -0.300000       14.0070           0
      7270 MEMB     66       SAPS     HN1      HCL      0.330000       1.00800           0
      7271 MEMB     66       SAPS     HN2      HCL      0.330000       1.00800           0
      7272 MEMB     66       SAPS     HN3      HCL      0.330000       1.00800           0
      7273 MEMB     66       SAPS     C12      CTL1     0.210000       12.0110           0
      7274 MEMB     66       SAPS     H12A     HBL      0.100000       1.00800           0
      7275 MEMB     66       SAPS     C13      CCL      0.340000       12.0110           0
      7276 MEMB     66       SAPS     O13A     OCL     -0.670000       15.9994           0
      7277 MEMB     66       SAPS     O13B     OCL     -0.670000       15.9994           0
      7278 MEMB     66       SAPS     C11      CTL2    -0.800000E-01   12.0110           0
      7279 MEMB     66       SAPS     H11A     HAL2     0.900000E-01   1.00800           0
      7280 MEMB     66       SAPS     H11B     HAL2     0.900000E-01   1.00800           0
      7281 MEMB     66       SAPS     P        PL        1.50000       30.9740           0
      7282 MEMB     66       SAPS     O13      O2L     -0.780000       15.9994           0
      7283 MEMB     66       SAPS     O14      O2L     -0.780000       15.9994           0
      7284 MEMB     66       SAPS     O12      OSLP    -0.570000       15.9994           0
      7285 MEMB     66       SAPS     O11      OSLP    -0.570000       15.9994           0
      7286 MEMB     66       SAPS     C1       CTL2    -0.800000E-01   12.0110           0
      7287 MEMB     66       SAPS     HA       HAL2     0.900000E-01   1.00800           0
      7288 MEMB     66       SAPS     HB       HAL2     0.900000E-01   1.00800           0
      7289 MEMB     66       SAPS     C2       CTL1     0.170000       12.0110           0
      7290 MEMB     66       SAPS     HS       HAL1     0.900000E-01   1.00800           0
      7291 MEMB     66       SAPS     O21      OSL     -0.490000       15.9994           0
      7292 MEMB     66       SAPS     C21      CL       0.900000       12.0110           0
      7293 MEMB     66       SAPS     O22      OBL     -0.630000       15.9994           0
      7294 MEMB     66       SAPS     C22      CTL2    -0.220000       12.0110           0
      7295 MEMB     66       SAPS     H2R      HAL2     0.900000E-01   1.00800           0
      7296 MEMB     66       SAPS     H2S      HAL2     0.900000E-01   1.00800           0
      7297 MEMB     66       SAPS     C3       CTL2     0.800000E-01   12.0110           0
      7298 MEMB     66       SAPS     HX       HAL2     0.900000E-01   1.00800           0
      7299 MEMB     66       SAPS     HY       HAL2     0.900000E-01   1.00800           0
      7300 MEMB     66       SAPS     O31      OSL     -0.490000       15.9994           0
      7301 MEMB     66       SAPS     C31      CL       0.900000       12.0110           0
      7302 MEMB     66       SAPS     O32      OBL     -0.630000       15.9994           0
      7303 MEMB     66       SAPS     C32      CTL2    -0.220000       12.0110           0
      7304 MEMB     66       SAPS     H2X      HAL2     0.900000E-01   1.00800           0
      7305 MEMB     66       SAPS     H2Y      HAL2     0.900000E-01   1.00800           0
      7306 MEMB     66       SAPS     C23      CTL2    -0.180000       12.0110           0
      7307 MEMB     66       SAPS     H3R      HAL2     0.900000E-01   1.00800           0
      7308 MEMB     66       SAPS     H3S      HAL2     0.900000E-01   1.00800           0
      7309 MEMB     66       SAPS     C24      CTL2    -0.180000       12.0110           0
      7310 MEMB     66       SAPS     H4R      HAL2     0.900000E-01   1.00800           0
      7311 MEMB     66       SAPS     H4S      HAL2     0.900000E-01   1.00800           0
      7312 MEMB     66       SAPS     C25      CEL1    -0.150000       12.0110           0
      7313 MEMB     66       SAPS     H5R      HEL1     0.150000       1.00800           0
      7314 MEMB     66       SAPS     C26      CEL1    -0.150000       12.0110           0
      7315 MEMB     66       SAPS     H6R      HEL1     0.150000       1.00800           0
      7316 MEMB     66       SAPS     C27      CTL2    -0.180000       12.0110           0
      7317 MEMB     66       SAPS     H7R      HAL2     0.900000E-01   1.00800           0
      7318 MEMB     66       SAPS     H7S      HAL2     0.900000E-01   1.00800           0
      7319 MEMB     66       SAPS     C28      CEL1    -0.150000       12.0110           0
      7320 MEMB     66       SAPS     H8R      HEL1     0.150000       1.00800           0
      7321 MEMB     66       SAPS     C29      CEL1    -0.150000       12.0110           0
      7322 MEMB     66       SAPS     H9R      HEL1     0.150000       1.00800           0
      7323 MEMB     66       SAPS     C210     CTL2    -0.180000       12.0110           0
      7324 MEMB     66       SAPS     H10R     HAL2     0.900000E-01   1.00800           0
      7325 MEMB     66       SAPS     H10S     HAL2     0.900000E-01   1.00800           0
      7326 MEMB     66       SAPS     C211     CEL1    -0.150000       12.0110           0
      7327 MEMB     66       SAPS     H11R     HEL1     0.150000       1.00800           0
      7328 MEMB     66       SAPS     C212     CEL1    -0.150000       12.0110           0
      7329 MEMB     66       SAPS     H12R     HEL1     0.150000       1.00800           0
      7330 MEMB     66       SAPS     C213     CTL2    -0.180000       12.0110           0
      7331 MEMB     66       SAPS     H13R     HAL2     0.900000E-01   1.00800           0
      7332 MEMB     66       SAPS     H13S     HAL2     0.900000E-01   1.00800           0
      7333 MEMB     66       SAPS     C214     CEL1    -0.150000       12.0110           0
      7334 MEMB     66       SAPS     H14R     HEL1     0.150000       1.00800           0
      7335 MEMB     66       SAPS     C215     CEL1    -0.150000       12.0110           0
      7336 MEMB     66       SAPS     H15R     HEL1     0.150000       1.00800           0
      7337 MEMB     66       SAPS     C216     CTL2    -0.180000       12.0110           0
      7338 MEMB     66       SAPS     H16R     HAL2     0.900000E-01   1.00800           0
      7339 MEMB     66       SAPS     H16S     HAL2     0.900000E-01   1.00800           0
      7340 MEMB     66       SAPS     C217     CTL2    -0.180000       12.0110           0
      7341 MEMB     66       SAPS     H17R     HAL2     0.900000E-01   1.00800           0
      7342 MEMB     66       SAPS     H17S     HAL2     0.900000E-01   1.00800           0
      7343 MEMB     66       SAPS     C218     CTL2    -0.180000       12.0110           0
      7344 MEMB     66       SAPS     H18R     HAL2     0.900000E-01   1.00800           0
      7345 MEMB     66       SAPS     H18S     HAL2     0.900000E-01   1.00800           0
      7346 MEMB     66       SAPS     C219     CTL2    -0.180000       12.0110           0
      7347 MEMB     66       SAPS     H19R     HAL2     0.900000E-01   1.00800           0
      7348 MEMB     66       SAPS     H19S     HAL2     0.900000E-01   1.00800           0
      7349 MEMB     66       SAPS     C220     CTL3    -0.270000       12.0110           0
      7350 MEMB     66       SAPS     H20R     HAL3     0.900000E-01   1.00800           0
      7351 MEMB     66       SAPS     H20S     HAL3     0.900000E-01   1.00800           0
      7352 MEMB     66       SAPS     H20T     HAL3     0.900000E-01   1.00800           0
      7353 MEMB     66       SAPS     C33      CTL2    -0.180000       12.0110           0
      7354 MEMB     66       SAPS     H3X      HAL2     0.900000E-01   1.00800           0
      7355 MEMB     66       SAPS     H3Y      HAL2     0.900000E-01   1.00800           0
      7356 MEMB     66       SAPS     C34      CTL2    -0.180000       12.0110           0
      7357 MEMB     66       SAPS     H4X      HAL2     0.900000E-01   1.00800           0
      7358 MEMB     66       SAPS     H4Y      HAL2     0.900000E-01   1.00800           0
      7359 MEMB     66       SAPS     C35      CTL2    -0.180000       12.0110           0
      7360 MEMB     66       SAPS     H5X      HAL2     0.900000E-01   1.00800           0
      7361 MEMB     66       SAPS     H5Y      HAL2     0.900000E-01   1.00800           0
      7362 MEMB     66       SAPS     C36      CTL2    -0.180000       12.0110           0
      7363 MEMB     66       SAPS     H6X      HAL2     0.900000E-01   1.00800           0
      7364 MEMB     66       SAPS     H6Y      HAL2     0.900000E-01   1.00800           0
      7365 MEMB     66       SAPS     C37      CTL2    -0.180000       12.0110           0
      7366 MEMB     66       SAPS     H7X      HAL2     0.900000E-01   1.00800           0
      7367 MEMB     66       SAPS     H7Y      HAL2     0.900000E-01   1.00800           0
      7368 MEMB     66       SAPS     C38      CTL2    -0.180000       12.0110           0
      7369 MEMB     66       SAPS     H8X      HAL2     0.900000E-01   1.00800           0
      7370 MEMB     66       SAPS     H8Y      HAL2     0.900000E-01   1.00800           0
      7371 MEMB     66       SAPS     C39      CTL2    -0.180000       12.0110           0
      7372 MEMB     66       SAPS     H9X      HAL2     0.900000E-01   1.00800           0
      7373 MEMB     66       SAPS     H9Y      HAL2     0.900000E-01   1.00800           0
      7374 MEMB     66       SAPS     C310     CTL2    -0.180000       12.0110           0
      7375 MEMB     66       SAPS     H10X     HAL2     0.900000E-01   1.00800           0
      7376 MEMB     66       SAPS     H10Y     HAL2     0.900000E-01   1.00800           0
      7377 MEMB     66       SAPS     C311     CTL2    -0.180000       12.0110           0
      7378 MEMB     66       SAPS     H11X     HAL2     0.900000E-01   1.00800           0
      7379 MEMB     66       SAPS     H11Y     HAL2     0.900000E-01   1.00800           0
      7380 MEMB     66       SAPS     C312     CTL2    -0.180000       12.0110           0
      7381 MEMB     66       SAPS     H12X     HAL2     0.900000E-01   1.00800           0
      7382 MEMB     66       SAPS     H12Y     HAL2     0.900000E-01   1.00800           0
      7383 MEMB     66       SAPS     C313     CTL2    -0.180000       12.0110           0
      7384 MEMB     66       SAPS     H13X     HAL2     0.900000E-01   1.00800           0
      7385 MEMB     66       SAPS     H13Y     HAL2     0.900000E-01   1.00800           0
      7386 MEMB     66       SAPS     C314     CTL2    -0.180000       12.0110           0
      7387 MEMB     66       SAPS     H14X     HAL2     0.900000E-01   1.00800           0
      7388 MEMB     66       SAPS     H14Y     HAL2     0.900000E-01   1.00800           0
      7389 MEMB     66       SAPS     C315     CTL2    -0.180000       12.0110           0
      7390 MEMB     66       SAPS     H15X     HAL2     0.900000E-01   1.00800           0
      7391 MEMB     66       SAPS     H15Y     HAL2     0.900000E-01   1.00800           0
      7392 MEMB     66       SAPS     C316     CTL2    -0.180000       12.0110           0
      7393 MEMB     66       SAPS     H16X     HAL2     0.900000E-01   1.00800           0
      7394 MEMB     66       SAPS     H16Y     HAL2     0.900000E-01   1.00800           0
      7395 MEMB     66       SAPS     C317     CTL2    -0.180000       12.0110           0
      7396 MEMB     66       SAPS     H17X     HAL2     0.900000E-01   1.00800           0
      7397 MEMB     66       SAPS     H17Y     HAL2     0.900000E-01   1.00800           0
      7398 MEMB     66       SAPS     C318     CTL3    -0.270000       12.0110           0
      7399 MEMB     66       SAPS     H18X     HAL3     0.900000E-01   1.00800           0
      7400 MEMB     66       SAPS     H18Y     HAL3     0.900000E-01   1.00800           0
      7401 MEMB     66       SAPS     H18Z     HAL3     0.900000E-01   1.00800           0
      7402 MEMB     67       SAPE     N        NH3L    -0.300000       14.0070           0
      7403 MEMB     67       SAPE     HN1      HCL      0.330000       1.00800           0
      7404 MEMB     67       SAPE     HN2      HCL      0.330000       1.00800           0
      7405 MEMB     67       SAPE     HN3      HCL      0.330000       1.00800           0
      7406 MEMB     67       SAPE     C12      CTL2     0.130000       12.0110           0
      7407 MEMB     67       SAPE     H12A     HAL2     0.900000E-01   1.00800           0
      7408 MEMB     67       SAPE     H12B     HAL2     0.900000E-01   1.00800           0
      7409 MEMB     67       SAPE     C11      CTL2    -0.800000E-01   12.0110           0
      7410 MEMB     67       SAPE     H11A     HAL2     0.900000E-01   1.00800           0
      7411 MEMB     67       SAPE     H11B     HAL2     0.900000E-01   1.00800           0
      7412 MEMB     67       SAPE     P        PL        1.50000       30.9740           0
      7413 MEMB     67       SAPE     O13      O2L     -0.780000       15.9994           0
      7414 MEMB     67       SAPE     O14      O2L     -0.780000       15.9994           0
      7415 MEMB     67       SAPE     O12      OSLP    -0.570000       15.9994           0
      7416 MEMB     67       SAPE     O11      OSLP    -0.570000       15.9994           0
      7417 MEMB     67       SAPE     C1       CTL2    -0.800000E-01   12.0110           0
      7418 MEMB     67       SAPE     HA       HAL2     0.900000E-01   1.00800           0
      7419 MEMB     67       SAPE     HB       HAL2     0.900000E-01   1.00800           0
      7420 MEMB     67       SAPE     C2       CTL1     0.170000       12.0110           0
      7421 MEMB     67       SAPE     HS       HAL1     0.900000E-01   1.00800           0
      7422 MEMB     67       SAPE     O21      OSL     -0.490000       15.9994           0
      7423 MEMB     67       SAPE     C21      CL       0.900000       12.0110           0
      7424 MEMB     67       SAPE     O22      OBL     -0.630000       15.9994           0
      7425 MEMB     67       SAPE     C22      CTL2    -0.220000       12.0110           0
      7426 MEMB     67       SAPE     H2R      HAL2     0.900000E-01   1.00800           0
      7427 MEMB     67       SAPE     H2S      HAL2     0.900000E-01   1.00800           0
      7428 MEMB     67       SAPE     C3       CTL2     0.800000E-01   12.0110           0
      7429 MEMB     67       SAPE     HX       HAL2     0.900000E-01   1.00800           0
      7430 MEMB     67       SAPE     HY       HAL2     0.900000E-01   1.00800           0
      7431 MEMB     67       SAPE     O31      OSL     -0.490000       15.9994           0
      7432 MEMB     67       SAPE     C31      CL       0.900000       12.0110           0
      7433 MEMB     67       SAPE     O32      OBL     -0.630000       15.9994           0
      7434 MEMB     67       SAPE     C32      CTL2    -0.220000       12.0110           0
      7435 MEMB     67       SAPE     H2X      HAL2     0.900000E-01   1.00800           0
      7436 MEMB     67       SAPE     H2Y      HAL2     0.900000E-01   1.00800           0
      7437 MEMB     67       SAPE     C23      CTL2    -0.180000       12.0110           0
      7438 MEMB     67       SAPE     H3R      HAL2     0.900000E-01   1.00800           0
      7439 MEMB     67       SAPE     H3S      HAL2     0.900000E-01   1.00800           0
      7440 MEMB     67       SAPE     C24      CTL2    -0.180000       12.0110           0
      7441 MEMB     67       SAPE     H4R      HAL2     0.900000E-01   1.00800           0
      7442 MEMB     67       SAPE     H4S      HAL2     0.900000E-01   1.00800           0
      7443 MEMB     67       SAPE     C25      CEL1    -0.150000       12.0110           0
      7444 MEMB     67       SAPE     H5R      HEL1     0.150000       1.00800           0
      7445 MEMB     67       SAPE     C26      CEL1    -0.150000       12.0110           0
      7446 MEMB     67       SAPE     H6R      HEL1     0.150000       1.00800           0
      7447 MEMB     67       SAPE     C27      CTL2    -0.180000       12.0110           0
      7448 MEMB     67       SAPE     H7R      HAL2     0.900000E-01   1.00800           0
      7449 MEMB     67       SAPE     H7S      HAL2     0.900000E-01   1.00800           0
      7450 MEMB     67       SAPE     C28      CEL1    -0.150000       12.0110           0
      7451 MEMB     67       SAPE     H8R      HEL1     0.150000       1.00800           0
      7452 MEMB     67       SAPE     C29      CEL1    -0.150000       12.0110           0
      7453 MEMB     67       SAPE     H9R      HEL1     0.150000       1.00800           0
      7454 MEMB     67       SAPE     C210     CTL2    -0.180000       12.0110           0
      7455 MEMB     67       SAPE     H10R     HAL2     0.900000E-01   1.00800           0
      7456 MEMB     67       SAPE     H10S     HAL2     0.900000E-01   1.00800           0
      7457 MEMB     67       SAPE     C211     CEL1    -0.150000       12.0110           0
      7458 MEMB     67       SAPE     H11R     HEL1     0.150000       1.00800           0
      7459 MEMB     67       SAPE     C212     CEL1    -0.150000       12.0110           0
      7460 MEMB     67       SAPE     H12R     HEL1     0.150000       1.00800           0
      7461 MEMB     67       SAPE     C213     CTL2    -0.180000       12.0110           0
      7462 MEMB     67       SAPE     H13R     HAL2     0.900000E-01   1.00800           0
      7463 MEMB     67       SAPE     H13S     HAL2     0.900000E-01   1.00800           0
      7464 MEMB     67       SAPE     C214     CEL1    -0.150000       12.0110           0
      7465 MEMB     67       SAPE     H14R     HEL1     0.150000       1.00800           0
      7466 MEMB     67       SAPE     C215     CEL1    -0.150000       12.0110           0
      7467 MEMB     67       SAPE     H15R     HEL1     0.150000       1.00800           0
      7468 MEMB     67       SAPE     C216     CTL2    -0.180000       12.0110           0
      7469 MEMB     67       SAPE     H16R     HAL2     0.900000E-01   1.00800           0
      7470 MEMB     67       SAPE     H16S     HAL2     0.900000E-01   1.00800           0
      7471 MEMB     67       SAPE     C217     CTL2    -0.180000       12.0110           0
      7472 MEMB     67       SAPE     H17R     HAL2     0.900000E-01   1.00800           0
      7473 MEMB     67       SAPE     H17S     HAL2     0.900000E-01   1.00800           0
      7474 MEMB     67       SAPE     C218     CTL2    -0.180000       12.0110           0
      7475 MEMB     67       SAPE     H18R     HAL2     0.900000E-01   1.00800           0
      7476 MEMB     67       SAPE     H18S     HAL2     0.900000E-01   1.00800           0
      7477 MEMB     67       SAPE     C219     CTL2    -0.180000       12.0110           0
      7478 MEMB     67       SAPE     H19R     HAL2     0.900000E-01   1.00800           0
      7479 MEMB     67       SAPE     H19S     HAL2     0.900000E-01   1.00800           0
      7480 MEMB     67       SAPE     C220     CTL3    -0.270000       12.0110           0
      7481 MEMB     67       SAPE     H20R     HAL3     0.900000E-01   1.00800           0
      7482 MEMB     67       SAPE     H20S     HAL3     0.900000E-01   1.00800           0
      7483 MEMB     67       SAPE     H20T     HAL3     0.900000E-01   1.00800           0
      7484 MEMB     67       SAPE     C33      CTL2    -0.180000       12.0110           0
      7485 MEMB     67       SAPE     H3X      HAL2     0.900000E-01   1.00800           0
      7486 MEMB     67       SAPE     H3Y      HAL2     0.900000E-01   1.00800           0
      7487 MEMB     67       SAPE     C34      CTL2    -0.180000       12.0110           0
      7488 MEMB     67       SAPE     H4X      HAL2     0.900000E-01   1.00800           0
      7489 MEMB     67       SAPE     H4Y      HAL2     0.900000E-01   1.00800           0
      7490 MEMB     67       SAPE     C35      CTL2    -0.180000       12.0110           0
      7491 MEMB     67       SAPE     H5X      HAL2     0.900000E-01   1.00800           0
      7492 MEMB     67       SAPE     H5Y      HAL2     0.900000E-01   1.00800           0
      7493 MEMB     67       SAPE     C36      CTL2    -0.180000       12.0110           0
      7494 MEMB     67       SAPE     H6X      HAL2     0.900000E-01   1.00800           0
      7495 MEMB     67       SAPE     H6Y      HAL2     0.900000E-01   1.00800           0
      7496 MEMB     67       SAPE     C37      CTL2    -0.180000       12.0110           0
      7497 MEMB     67       SAPE     H7X      HAL2     0.900000E-01   1.00800           0
      7498 MEMB     67       SAPE     H7Y      HAL2     0.900000E-01   1.00800           0
      7499 MEMB     67       SAPE     C38      CTL2    -0.180000       12.0110           0
      7500 MEMB     67       SAPE     H8X      HAL2     0.900000E-01   1.00800           0
      7501 MEMB     67       SAPE     H8Y      HAL2     0.900000E-01   1.00800           0
      7502 MEMB     67       SAPE     C39      CTL2    -0.180000       12.0110           0
      7503 MEMB     67       SAPE     H9X      HAL2     0.900000E-01   1.00800           0
      7504 MEMB     67       SAPE     H9Y      HAL2     0.900000E-01   1.00800           0
      7505 MEMB     67       SAPE     C310     CTL2    -0.180000       12.0110           0
      7506 MEMB     67       SAPE     H10X     HAL2     0.900000E-01   1.00800           0
      7507 MEMB     67       SAPE     H10Y     HAL2     0.900000E-01   1.00800           0
      7508 MEMB     67       SAPE     C311     CTL2    -0.180000       12.0110           0
      7509 MEMB     67       SAPE     H11X     HAL2     0.900000E-01   1.00800           0
      7510 MEMB     67       SAPE     H11Y     HAL2     0.900000E-01   1.00800           0
      7511 MEMB     67       SAPE     C312     CTL2    -0.180000       12.0110           0
      7512 MEMB     67       SAPE     H12X     HAL2     0.900000E-01   1.00800           0
      7513 MEMB     67       SAPE     H12Y     HAL2     0.900000E-01   1.00800           0
      7514 MEMB     67       SAPE     C313     CTL2    -0.180000       12.0110           0
      7515 MEMB     67       SAPE     H13X     HAL2     0.900000E-01   1.00800           0
      7516 MEMB     67       SAPE     H13Y     HAL2     0.900000E-01   1.00800           0
      7517 MEMB     67       SAPE     C314     CTL2    -0.180000       12.0110           0
      7518 MEMB     67       SAPE     H14X     HAL2     0.900000E-01   1.00800           0
      7519 MEMB     67       SAPE     H14Y     HAL2     0.900000E-01   1.00800           0
      7520 MEMB     67       SAPE     C315     CTL2    -0.180000       12.0110           0
      7521 MEMB     67       SAPE     H15X     HAL2     0.900000E-01   1.00800           0
      7522 MEMB     67       SAPE     H15Y     HAL2     0.900000E-01   1.00800           0
      7523 MEMB     67       SAPE     C316     CTL2    -0.180000       12.0110           0
      7524 MEMB     67       SAPE     H16X     HAL2     0.900000E-01   1.00800           0
      7525 MEMB     67       SAPE     H16Y     HAL2     0.900000E-01   1.00800           0
      7526 MEMB     67       SAPE     C317     CTL2    -0.180000       12.0110           0
      7527 MEMB     67       SAPE     H17X     HAL2     0.900000E-01   1.00800           0
      7528 MEMB     67       SAPE     H17Y     HAL2     0.900000E-01   1.00800           0
      7529 MEMB     67       SAPE     C318     CTL3    -0.270000       12.0110           0
      7530 MEMB     67       SAPE     H18X     HAL3     0.900000E-01   1.00800           0
      7531 MEMB     67       SAPE     H18Y     HAL3     0.900000E-01   1.00800           0
      7532 MEMB     67       SAPE     H18Z     HAL3     0.900000E-01   1.00800           0
      7533 MEMB     68       POPC     N        NTL     -0.600000       14.0070           0
      7534 MEMB     68       POPC     C12      CTL2    -0.100000       12.0110           0
      7535 MEMB     68       POPC     H12A     HL       0.250000       1.00800           0
      7536 MEMB     68       POPC     H12B     HL       0.250000       1.00800           0
      7537 MEMB     68       POPC     C13      CTL5    -0.350000       12.0110           0
      7538 MEMB     68       POPC     H13A     HL       0.250000       1.00800           0
      7539 MEMB     68       POPC     H13B     HL       0.250000       1.00800           0
      7540 MEMB     68       POPC     H13C     HL       0.250000       1.00800           0
      7541 MEMB     68       POPC     C14      CTL5    -0.350000       12.0110           0
      7542 MEMB     68       POPC     H14A     HL       0.250000       1.00800           0
      7543 MEMB     68       POPC     H14B     HL       0.250000       1.00800           0
      7544 MEMB     68       POPC     H14C     HL       0.250000       1.00800           0
      7545 MEMB     68       POPC     C15      CTL5    -0.350000       12.0110           0
      7546 MEMB     68       POPC     H15A     HL       0.250000       1.00800           0
      7547 MEMB     68       POPC     H15B     HL       0.250000       1.00800           0
      7548 MEMB     68       POPC     H15C     HL       0.250000       1.00800           0
      7549 MEMB     68       POPC     C11      CTL2    -0.800000E-01   12.0110           0
      7550 MEMB     68       POPC     H11A     HAL2     0.900000E-01   1.00800           0
      7551 MEMB     68       POPC     H11B     HAL2     0.900000E-01   1.00800           0
      7552 MEMB     68       POPC     P        PL        1.50000       30.9740           0
      7553 MEMB     68       POPC     O13      O2L     -0.780000       15.9994           0
      7554 MEMB     68       POPC     O14      O2L     -0.780000       15.9994           0
      7555 MEMB     68       POPC     O12      OSLP    -0.570000       15.9994           0
      7556 MEMB     68       POPC     O11      OSLP    -0.570000       15.9994           0
      7557 MEMB     68       POPC     C1       CTL2    -0.800000E-01   12.0110           0
      7558 MEMB     68       POPC     HA       HAL2     0.900000E-01   1.00800           0
      7559 MEMB     68       POPC     HB       HAL2     0.900000E-01   1.00800           0
      7560 MEMB     68       POPC     C2       CTL1     0.170000       12.0110           0
      7561 MEMB     68       POPC     HS       HAL1     0.900000E-01   1.00800           0
      7562 MEMB     68       POPC     O21      OSL     -0.490000       15.9994           0
      7563 MEMB     68       POPC     C21      CL       0.900000       12.0110           0
      7564 MEMB     68       POPC     O22      OBL     -0.630000       15.9994           0
      7565 MEMB     68       POPC     C22      CTL2    -0.220000       12.0110           0
      7566 MEMB     68       POPC     H2R      HAL2     0.900000E-01   1.00800           0
      7567 MEMB     68       POPC     H2S      HAL2     0.900000E-01   1.00800           0
      7568 MEMB     68       POPC     C3       CTL2     0.800000E-01   12.0110           0
      7569 MEMB     68       POPC     HX       HAL2     0.900000E-01   1.00800           0
      7570 MEMB     68       POPC     HY       HAL2     0.900000E-01   1.00800           0
      7571 MEMB     68       POPC     O31      OSL     -0.490000       15.9994           0
      7572 MEMB     68       POPC     C31      CL       0.900000       12.0110           0
      7573 MEMB     68       POPC     O32      OBL     -0.630000       15.9994           0
      7574 MEMB     68       POPC     C32      CTL2    -0.220000       12.0110           0
      7575 MEMB     68       POPC     H2X      HAL2     0.900000E-01   1.00800           0
      7576 MEMB     68       POPC     H2Y      HAL2     0.900000E-01   1.00800           0
      7577 MEMB     68       POPC     C23      CTL2    -0.180000       12.0110           0
      7578 MEMB     68       POPC     H3R      HAL2     0.900000E-01   1.00800           0
      7579 MEMB     68       POPC     H3S      HAL2     0.900000E-01   1.00800           0
      7580 MEMB     68       POPC     C24      CTL2    -0.180000       12.0110           0
      7581 MEMB     68       POPC     H4R      HAL2     0.900000E-01   1.00800           0
      7582 MEMB     68       POPC     H4S      HAL2     0.900000E-01   1.00800           0
      7583 MEMB     68       POPC     C25      CTL2    -0.180000       12.0110           0
      7584 MEMB     68       POPC     H5R      HAL2     0.900000E-01   1.00800           0
      7585 MEMB     68       POPC     H5S      HAL2     0.900000E-01   1.00800           0
      7586 MEMB     68       POPC     C26      CTL2    -0.180000       12.0110           0
      7587 MEMB     68       POPC     H6R      HAL2     0.900000E-01   1.00800           0
      7588 MEMB     68       POPC     H6S      HAL2     0.900000E-01   1.00800           0
      7589 MEMB     68       POPC     C27      CTL2    -0.180000       12.0110           0
      7590 MEMB     68       POPC     H7R      HAL2     0.900000E-01   1.00800           0
      7591 MEMB     68       POPC     H7S      HAL2     0.900000E-01   1.00800           0
      7592 MEMB     68       POPC     C28      CTL2    -0.180000       12.0110           0
      7593 MEMB     68       POPC     H8R      HAL2     0.900000E-01   1.00800           0
      7594 MEMB     68       POPC     H8S      HAL2     0.900000E-01   1.00800           0
      7595 MEMB     68       POPC     C29      CEL1    -0.150000       12.0110           0
      7596 MEMB     68       POPC     H91      HEL1     0.150000       1.00800           0
      7597 MEMB     68       POPC     C210     CEL1    -0.150000       12.0110           0
      7598 MEMB     68       POPC     H101     HEL1     0.150000       1.00800           0
      7599 MEMB     68       POPC     C211     CTL2    -0.180000       12.0110           0
      7600 MEMB     68       POPC     H11R     HAL2     0.900000E-01   1.00800           0
      7601 MEMB     68       POPC     H11S     HAL2     0.900000E-01   1.00800           0
      7602 MEMB     68       POPC     C212     CTL2    -0.180000       12.0110           0
      7603 MEMB     68       POPC     H12R     HAL2     0.900000E-01   1.00800           0
      7604 MEMB     68       POPC     H12S     HAL2     0.900000E-01   1.00800           0
      7605 MEMB     68       POPC     C213     CTL2    -0.180000       12.0110           0
      7606 MEMB     68       POPC     H13R     HAL2     0.900000E-01   1.00800           0
      7607 MEMB     68       POPC     H13S     HAL2     0.900000E-01   1.00800           0
      7608 MEMB     68       POPC     C214     CTL2    -0.180000       12.0110           0
      7609 MEMB     68       POPC     H14R     HAL2     0.900000E-01   1.00800           0
      7610 MEMB     68       POPC     H14S     HAL2     0.900000E-01   1.00800           0
      7611 MEMB     68       POPC     C215     CTL2    -0.180000       12.0110           0
      7612 MEMB     68       POPC     H15R     HAL2     0.900000E-01   1.00800           0
      7613 MEMB     68       POPC     H15S     HAL2     0.900000E-01   1.00800           0
      7614 MEMB     68       POPC     C216     CTL2    -0.180000       12.0110           0
      7615 MEMB     68       POPC     H16R     HAL2     0.900000E-01   1.00800           0
      7616 MEMB     68       POPC     H16S     HAL2     0.900000E-01   1.00800           0
      7617 MEMB     68       POPC     C217     CTL2    -0.180000       12.0110           0
      7618 MEMB     68       POPC     H17R     HAL2     0.900000E-01   1.00800           0
      7619 MEMB     68       POPC     H17S     HAL2     0.900000E-01   1.00800           0
      7620 MEMB     68       POPC     C218     CTL3    -0.270000       12.0110           0
      7621 MEMB     68       POPC     H18R     HAL3     0.900000E-01   1.00800           0
      7622 MEMB     68       POPC     H18S     HAL3     0.900000E-01   1.00800           0
      7623 MEMB     68       POPC     H18T     HAL3     0.900000E-01   1.00800           0
      7624 MEMB     68       POPC     C33      CTL2    -0.180000       12.0110           0
      7625 MEMB     68       POPC     H3X      HAL2     0.900000E-01   1.00800           0
      7626 MEMB     68       POPC     H3Y      HAL2     0.900000E-01   1.00800           0
      7627 MEMB     68       POPC     C34      CTL2    -0.180000       12.0110           0
      7628 MEMB     68       POPC     H4X      HAL2     0.900000E-01   1.00800           0
      7629 MEMB     68       POPC     H4Y      HAL2     0.900000E-01   1.00800           0
      7630 MEMB     68       POPC     C35      CTL2    -0.180000       12.0110           0
      7631 MEMB     68       POPC     H5X      HAL2     0.900000E-01   1.00800           0
      7632 MEMB     68       POPC     H5Y      HAL2     0.900000E-01   1.00800           0
      7633 MEMB     68       POPC     C36      CTL2    -0.180000       12.0110           0
      7634 MEMB     68       POPC     H6X      HAL2     0.900000E-01   1.00800           0
      7635 MEMB     68       POPC     H6Y      HAL2     0.900000E-01   1.00800           0
      7636 MEMB     68       POPC     C37      CTL2    -0.180000       12.0110           0
      7637 MEMB     68       POPC     H7X      HAL2     0.900000E-01   1.00800           0
      7638 MEMB     68       POPC     H7Y      HAL2     0.900000E-01   1.00800           0
      7639 MEMB     68       POPC     C38      CTL2    -0.180000       12.0110           0
      7640 MEMB     68       POPC     H8X      HAL2     0.900000E-01   1.00800           0
      7641 MEMB     68       POPC     H8Y      HAL2     0.900000E-01   1.00800           0
      7642 MEMB     68       POPC     C39      CTL2    -0.180000       12.0110           0
      7643 MEMB     68       POPC     H9X      HAL2     0.900000E-01   1.00800           0
      7644 MEMB     68       POPC     H9Y      HAL2     0.900000E-01   1.00800           0
      7645 MEMB     68       POPC     C310     CTL2    -0.180000       12.0110           0
      7646 MEMB     68       POPC     H10X     HAL2     0.900000E-01   1.00800           0
      7647 MEMB     68       POPC     H10Y     HAL2     0.900000E-01   1.00800           0
      7648 MEMB     68       POPC     C311     CTL2    -0.180000       12.0110           0
      7649 MEMB     68       POPC     H11X     HAL2     0.900000E-01   1.00800           0
      7650 MEMB     68       POPC     H11Y     HAL2     0.900000E-01   1.00800           0
      7651 MEMB     68       POPC     C312     CTL2    -0.180000       12.0110           0
      7652 MEMB     68       POPC     H12X     HAL2     0.900000E-01   1.00800           0
      7653 MEMB     68       POPC     H12Y     HAL2     0.900000E-01   1.00800           0
      7654 MEMB     68       POPC     C313     CTL2    -0.180000       12.0110           0
      7655 MEMB     68       POPC     H13X     HAL2     0.900000E-01   1.00800           0
      7656 MEMB     68       POPC     H13Y     HAL2     0.900000E-01   1.00800           0
      7657 MEMB     68       POPC     C314     CTL2    -0.180000       12.0110           0
      7658 MEMB     68       POPC     H14X     HAL2     0.900000E-01   1.00800           0
      7659 MEMB     68       POPC     H14Y     HAL2     0.900000E-01   1.00800           0
      7660 MEMB     68       POPC     C315     CTL2    -0.180000       12.0110           0
      7661 MEMB     68       POPC     H15X     HAL2     0.900000E-01   1.00800           0
      7662 MEMB     68       POPC     H15Y     HAL2     0.900000E-01   1.00800           0
      7663 MEMB     68       POPC     C316     CTL3    -0.270000       12.0110           0
      7664 MEMB     68       POPC     H16X     HAL3     0.900000E-01   1.00800           0
      7665 MEMB     68       POPC     H16Y     HAL3     0.900000E-01   1.00800           0
      7666 MEMB     68       POPC     H16Z     HAL3     0.900000E-01   1.00800           0
      7667 MEMB     69       OSM      N        NTL     -0.600000       14.0070           0
      7668 MEMB     69       OSM      C15      CTL5    -0.350000       12.0110           0
      7669 MEMB     69       OSM      H15A     HL       0.250000       1.00800           0
      7670 MEMB     69       OSM      H15B     HL       0.250000       1.00800           0
      7671 MEMB     69       OSM      H15C     HL       0.250000       1.00800           0
      7672 MEMB     69       OSM      C14      CTL5    -0.350000       12.0110           0
      7673 MEMB     69       OSM      H14A     HL       0.250000       1.00800           0
      7674 MEMB     69       OSM      H14B     HL       0.250000       1.00800           0
      7675 MEMB     69       OSM      H14C     HL       0.250000       1.00800           0
      7676 MEMB     69       OSM      C13      CTL5    -0.350000       12.0110           0
      7677 MEMB     69       OSM      H13A     HL       0.250000       1.00800           0
      7678 MEMB     69       OSM      H13B     HL       0.250000       1.00800           0
      7679 MEMB     69       OSM      H13C     HL       0.250000       1.00800           0
      7680 MEMB     69       OSM      C12      CTL2    -0.100000       12.0110           0
      7681 MEMB     69       OSM      H12A     HL       0.250000       1.00800           0
      7682 MEMB     69       OSM      H12B     HL       0.250000       1.00800           0
      7683 MEMB     69       OSM      C11      CTL2    -0.800000E-01   12.0110           0
      7684 MEMB     69       OSM      H11A     HAL2     0.900000E-01   1.00800           0
      7685 MEMB     69       OSM      H11B     HAL2     0.900000E-01   1.00800           0
      7686 MEMB     69       OSM      P        PL        1.50000       30.9740           0
      7687 MEMB     69       OSM      O13      O2L     -0.780000       15.9994           0
      7688 MEMB     69       OSM      O14      O2L     -0.780000       15.9994           0
      7689 MEMB     69       OSM      O11      OSLP    -0.570000       15.9994           0
      7690 MEMB     69       OSM      O12      OSLP    -0.570000       15.9994           0
      7691 MEMB     69       OSM      C1S      CTL2    -0.800000E-01   12.0110           0
      7692 MEMB     69       OSM      H1S      HAL2     0.900000E-01   1.00800           0
      7693 MEMB     69       OSM      H1T      HAL2     0.900000E-01   1.00800           0
      7694 MEMB     69       OSM      NF       NHL     -0.700000       14.0070           0
      7695 MEMB     69       OSM      HNF      H        0.350000       1.00800           0
      7696 MEMB     69       OSM      C2S      CTL1     0.300000       12.0110           0
      7697 MEMB     69       OSM      H2S      HAL1     0.500000E-01   1.00800           0
      7698 MEMB     69       OSM      C3S      CTO1     0.500000       12.0110           0
      7699 MEMB     69       OSM      H3S      HAL1    -0.110000       1.00800           0
      7700 MEMB     69       OSM      O3       OHL     -0.690000       15.9994           0
      7701 MEMB     69       OSM      HO3      HOL      0.300000       1.00800           0
      7702 MEMB     69       OSM      C4S      CEL3    -0.150000       12.0110           0
      7703 MEMB     69       OSM      H4S      HEL1     0.150000       1.00800           0
      7704 MEMB     69       OSM      C5S      CEL3    -0.150000       12.0110           0
      7705 MEMB     69       OSM      H5S      HEL1     0.150000       1.00800           0
      7706 MEMB     69       OSM      C6S      CTL2    -0.180000       12.0110           0
      7707 MEMB     69       OSM      H6S      HAL2     0.900000E-01   1.00800           0
      7708 MEMB     69       OSM      H6T      HAL2     0.900000E-01   1.00800           0
      7709 MEMB     69       OSM      C7S      CTL2    -0.180000       12.0110           0
      7710 MEMB     69       OSM      H7S      HAL2     0.900000E-01   1.00800           0
      7711 MEMB     69       OSM      H7T      HAL2     0.900000E-01   1.00800           0
      7712 MEMB     69       OSM      C8S      CTL2    -0.180000       12.0110           0
      7713 MEMB     69       OSM      H8S      HAL2     0.900000E-01   1.00800           0
      7714 MEMB     69       OSM      H8T      HAL2     0.900000E-01   1.00800           0
      7715 MEMB     69       OSM      C9S      CTL2    -0.180000       12.0110           0
      7716 MEMB     69       OSM      H9S      HAL2     0.900000E-01   1.00800           0
      7717 MEMB     69       OSM      H9T      HAL2     0.900000E-01   1.00800           0
      7718 MEMB     69       OSM      C10S     CTL2    -0.180000       12.0110           0
      7719 MEMB     69       OSM      H10S     HAL2     0.900000E-01   1.00800           0
      7720 MEMB     69       OSM      H10T     HAL2     0.900000E-01   1.00800           0
      7721 MEMB     69       OSM      C11S     CTL2    -0.180000       12.0110           0
      7722 MEMB     69       OSM      H11S     HAL2     0.900000E-01   1.00800           0
      7723 MEMB     69       OSM      H11T     HAL2     0.900000E-01   1.00800           0
      7724 MEMB     69       OSM      C12S     CTL2    -0.180000       12.0110           0
      7725 MEMB     69       OSM      H12S     HAL2     0.900000E-01   1.00800           0
      7726 MEMB     69       OSM      H12T     HAL2     0.900000E-01   1.00800           0
      7727 MEMB     69       OSM      C13S     CTL2    -0.180000       12.0110           0
      7728 MEMB     69       OSM      H13S     HAL2     0.900000E-01   1.00800           0
      7729 MEMB     69       OSM      H13T     HAL2     0.900000E-01   1.00800           0
      7730 MEMB     69       OSM      C14S     CTL2    -0.180000       12.0110           0
      7731 MEMB     69       OSM      H14S     HAL2     0.900000E-01   1.00800           0
      7732 MEMB     69       OSM      H14T     HAL2     0.900000E-01   1.00800           0
      7733 MEMB     69       OSM      C15S     CTL2    -0.180000       12.0110           0
      7734 MEMB     69       OSM      H15S     HAL2     0.900000E-01   1.00800           0
      7735 MEMB     69       OSM      H15T     HAL2     0.900000E-01   1.00800           0
      7736 MEMB     69       OSM      C16S     CTL2    -0.180000       12.0110           0
      7737 MEMB     69       OSM      H16S     HAL2     0.900000E-01   1.00800           0
      7738 MEMB     69       OSM      H16T     HAL2     0.900000E-01   1.00800           0
      7739 MEMB     69       OSM      C17S     CTL2    -0.180000       12.0110           0
      7740 MEMB     69       OSM      H17S     HAL2     0.900000E-01   1.00800           0
      7741 MEMB     69       OSM      H17T     HAL2     0.900000E-01   1.00800           0
      7742 MEMB     69       OSM      C18S     CTL3    -0.270000       12.0110           0
      7743 MEMB     69       OSM      H18S     HAL3     0.900000E-01   1.00800           0
      7744 MEMB     69       OSM      H18T     HAL3     0.900000E-01   1.00800           0
      7745 MEMB     69       OSM      H18U     HAL3     0.900000E-01   1.00800           0
      7746 MEMB     69       OSM      C1F      C        0.550000       12.0110           0
      7747 MEMB     69       OSM      OF       O       -0.600000       15.9994           0
      7748 MEMB     69       OSM      C2F      CTL2    -0.700000E-01   12.0110           0
      7749 MEMB     69       OSM      H2F      HAL2     0.600000E-01   1.00800           0
      7750 MEMB     69       OSM      H2G      HAL2     0.600000E-01   1.00800           0
      7751 MEMB     69       OSM      C3F      CTL2    -0.180000       12.0110           0
      7752 MEMB     69       OSM      H3F      HAL2     0.900000E-01   1.00800           0
      7753 MEMB     69       OSM      H3G      HAL2     0.900000E-01   1.00800           0
      7754 MEMB     69       OSM      C4F      CTL2    -0.180000       12.0110           0
      7755 MEMB     69       OSM      H4F      HAL2     0.900000E-01   1.00800           0
      7756 MEMB     69       OSM      H4G      HAL2     0.900000E-01   1.00800           0
      7757 MEMB     69       OSM      C5F      CTL2    -0.180000       12.0110           0
      7758 MEMB     69       OSM      H5F      HAL2     0.900000E-01   1.00800           0
      7759 MEMB     69       OSM      H5G      HAL2     0.900000E-01   1.00800           0
      7760 MEMB     69       OSM      C6F      CTL2    -0.180000       12.0110           0
      7761 MEMB     69       OSM      H6F      HAL2     0.900000E-01   1.00800           0
      7762 MEMB     69       OSM      H6G      HAL2     0.900000E-01   1.00800           0
      7763 MEMB     69       OSM      C7F      CTL2    -0.180000       12.0110           0
      7764 MEMB     69       OSM      H7F      HAL2     0.900000E-01   1.00800           0
      7765 MEMB     69       OSM      H7G      HAL2     0.900000E-01   1.00800           0
      7766 MEMB     69       OSM      C8F      CTL2    -0.180000       12.0110           0
      7767 MEMB     69       OSM      H8F      HAL2     0.900000E-01   1.00800           0
      7768 MEMB     69       OSM      H8G      HAL2     0.900000E-01   1.00800           0
      7769 MEMB     69       OSM      C9F      CEL1    -0.150000       12.0110           0
      7770 MEMB     69       OSM      H9F      HEL1     0.150000       1.00800           0
      7771 MEMB     69       OSM      C10F     CEL1    -0.150000       12.0110           0
      7772 MEMB     69       OSM      H10F     HEL1     0.150000       1.00800           0
      7773 MEMB     69       OSM      C11F     CTL2    -0.180000       12.0110           0
      7774 MEMB     69       OSM      H11F     HAL2     0.900000E-01   1.00800           0
      7775 MEMB     69       OSM      H11G     HAL2     0.900000E-01   1.00800           0
      7776 MEMB     69       OSM      C12F     CTL2    -0.180000       12.0110           0
      7777 MEMB     69       OSM      H12F     HAL2     0.900000E-01   1.00800           0
      7778 MEMB     69       OSM      H12G     HAL2     0.900000E-01   1.00800           0
      7779 MEMB     69       OSM      C13F     CTL2    -0.180000       12.0110           0
      7780 MEMB     69       OSM      H13F     HAL2     0.900000E-01   1.00800           0
      7781 MEMB     69       OSM      H13G     HAL2     0.900000E-01   1.00800           0
      7782 MEMB     69       OSM      C14F     CTL2    -0.180000       12.0110           0
      7783 MEMB     69       OSM      H14F     HAL2     0.900000E-01   1.00800           0
      7784 MEMB     69       OSM      H14G     HAL2     0.900000E-01   1.00800           0
      7785 MEMB     69       OSM      C15F     CTL2    -0.180000       12.0110           0
      7786 MEMB     69       OSM      H15F     HAL2     0.900000E-01   1.00800           0
      7787 MEMB     69       OSM      H15G     HAL2     0.900000E-01   1.00800           0
      7788 MEMB     69       OSM      C16F     CTL2    -0.180000       12.0110           0
      7789 MEMB     69       OSM      H16F     HAL2     0.900000E-01   1.00800           0
      7790 MEMB     69       OSM      H16G     HAL2     0.900000E-01   1.00800           0
      7791 MEMB     69       OSM      C17F     CTL2    -0.180000       12.0110           0
      7792 MEMB     69       OSM      H17F     HAL2     0.900000E-01   1.00800           0
      7793 MEMB     69       OSM      H17G     HAL2     0.900000E-01   1.00800           0
      7794 MEMB     69       OSM      C18F     CTL3    -0.270000       12.0110           0
      7795 MEMB     69       OSM      H18F     HAL3     0.900000E-01   1.00800           0
      7796 MEMB     69       OSM      H18G     HAL3     0.900000E-01   1.00800           0
      7797 MEMB     69       OSM      H18H     HAL3     0.900000E-01   1.00800           0
      7798 MEMB     70       OSM      N        NTL     -0.600000       14.0070           0
      7799 MEMB     70       OSM      C15      CTL5    -0.350000       12.0110           0
      7800 MEMB     70       OSM      H15A     HL       0.250000       1.00800           0
      7801 MEMB     70       OSM      H15B     HL       0.250000       1.00800           0
      7802 MEMB     70       OSM      H15C     HL       0.250000       1.00800           0
      7803 MEMB     70       OSM      C14      CTL5    -0.350000       12.0110           0
      7804 MEMB     70       OSM      H14A     HL       0.250000       1.00800           0
      7805 MEMB     70       OSM      H14B     HL       0.250000       1.00800           0
      7806 MEMB     70       OSM      H14C     HL       0.250000       1.00800           0
      7807 MEMB     70       OSM      C13      CTL5    -0.350000       12.0110           0
      7808 MEMB     70       OSM      H13A     HL       0.250000       1.00800           0
      7809 MEMB     70       OSM      H13B     HL       0.250000       1.00800           0
      7810 MEMB     70       OSM      H13C     HL       0.250000       1.00800           0
      7811 MEMB     70       OSM      C12      CTL2    -0.100000       12.0110           0
      7812 MEMB     70       OSM      H12A     HL       0.250000       1.00800           0
      7813 MEMB     70       OSM      H12B     HL       0.250000       1.00800           0
      7814 MEMB     70       OSM      C11      CTL2    -0.800000E-01   12.0110           0
      7815 MEMB     70       OSM      H11A     HAL2     0.900000E-01   1.00800           0
      7816 MEMB     70       OSM      H11B     HAL2     0.900000E-01   1.00800           0
      7817 MEMB     70       OSM      P        PL        1.50000       30.9740           0
      7818 MEMB     70       OSM      O13      O2L     -0.780000       15.9994           0
      7819 MEMB     70       OSM      O14      O2L     -0.780000       15.9994           0
      7820 MEMB     70       OSM      O11      OSLP    -0.570000       15.9994           0
      7821 MEMB     70       OSM      O12      OSLP    -0.570000       15.9994           0
      7822 MEMB     70       OSM      C1S      CTL2    -0.800000E-01   12.0110           0
      7823 MEMB     70       OSM      H1S      HAL2     0.900000E-01   1.00800           0
      7824 MEMB     70       OSM      H1T      HAL2     0.900000E-01   1.00800           0
      7825 MEMB     70       OSM      NF       NHL     -0.700000       14.0070           0
      7826 MEMB     70       OSM      HNF      H        0.350000       1.00800           0
      7827 MEMB     70       OSM      C2S      CTL1     0.300000       12.0110           0
      7828 MEMB     70       OSM      H2S      HAL1     0.500000E-01   1.00800           0
      7829 MEMB     70       OSM      C3S      CTO1     0.500000       12.0110           0
      7830 MEMB     70       OSM      H3S      HAL1    -0.110000       1.00800           0
      7831 MEMB     70       OSM      O3       OHL     -0.690000       15.9994           0
      7832 MEMB     70       OSM      HO3      HOL      0.300000       1.00800           0
      7833 MEMB     70       OSM      C4S      CEL3    -0.150000       12.0110           0
      7834 MEMB     70       OSM      H4S      HEL1     0.150000       1.00800           0
      7835 MEMB     70       OSM      C5S      CEL3    -0.150000       12.0110           0
      7836 MEMB     70       OSM      H5S      HEL1     0.150000       1.00800           0
      7837 MEMB     70       OSM      C6S      CTL2    -0.180000       12.0110           0
      7838 MEMB     70       OSM      H6S      HAL2     0.900000E-01   1.00800           0
      7839 MEMB     70       OSM      H6T      HAL2     0.900000E-01   1.00800           0
      7840 MEMB     70       OSM      C7S      CTL2    -0.180000       12.0110           0
      7841 MEMB     70       OSM      H7S      HAL2     0.900000E-01   1.00800           0
      7842 MEMB     70       OSM      H7T      HAL2     0.900000E-01   1.00800           0
      7843 MEMB     70       OSM      C8S      CTL2    -0.180000       12.0110           0
      7844 MEMB     70       OSM      H8S      HAL2     0.900000E-01   1.00800           0
      7845 MEMB     70       OSM      H8T      HAL2     0.900000E-01   1.00800           0
      7846 MEMB     70       OSM      C9S      CTL2    -0.180000       12.0110           0
      7847 MEMB     70       OSM      H9S      HAL2     0.900000E-01   1.00800           0
      7848 MEMB     70       OSM      H9T      HAL2     0.900000E-01   1.00800           0
      7849 MEMB     70       OSM      C10S     CTL2    -0.180000       12.0110           0
      7850 MEMB     70       OSM      H10S     HAL2     0.900000E-01   1.00800           0
      7851 MEMB     70       OSM      H10T     HAL2     0.900000E-01   1.00800           0
      7852 MEMB     70       OSM      C11S     CTL2    -0.180000       12.0110           0
      7853 MEMB     70       OSM      H11S     HAL2     0.900000E-01   1.00800           0
      7854 MEMB     70       OSM      H11T     HAL2     0.900000E-01   1.00800           0
      7855 MEMB     70       OSM      C12S     CTL2    -0.180000       12.0110           0
      7856 MEMB     70       OSM      H12S     HAL2     0.900000E-01   1.00800           0
      7857 MEMB     70       OSM      H12T     HAL2     0.900000E-01   1.00800           0
      7858 MEMB     70       OSM      C13S     CTL2    -0.180000       12.0110           0
      7859 MEMB     70       OSM      H13S     HAL2     0.900000E-01   1.00800           0
      7860 MEMB     70       OSM      H13T     HAL2     0.900000E-01   1.00800           0
      7861 MEMB     70       OSM      C14S     CTL2    -0.180000       12.0110           0
      7862 MEMB     70       OSM      H14S     HAL2     0.900000E-01   1.00800           0
      7863 MEMB     70       OSM      H14T     HAL2     0.900000E-01   1.00800           0
      7864 MEMB     70       OSM      C15S     CTL2    -0.180000       12.0110           0
      7865 MEMB     70       OSM      H15S     HAL2     0.900000E-01   1.00800           0
      7866 MEMB     70       OSM      H15T     HAL2     0.900000E-01   1.00800           0
      7867 MEMB     70       OSM      C16S     CTL2    -0.180000       12.0110           0
      7868 MEMB     70       OSM      H16S     HAL2     0.900000E-01   1.00800           0
      7869 MEMB     70       OSM      H16T     HAL2     0.900000E-01   1.00800           0
      7870 MEMB     70       OSM      C17S     CTL2    -0.180000       12.0110           0
      7871 MEMB     70       OSM      H17S     HAL2     0.900000E-01   1.00800           0
      7872 MEMB     70       OSM      H17T     HAL2     0.900000E-01   1.00800           0
      7873 MEMB     70       OSM      C18S     CTL3    -0.270000       12.0110           0
      7874 MEMB     70       OSM      H18S     HAL3     0.900000E-01   1.00800           0
      7875 MEMB     70       OSM      H18T     HAL3     0.900000E-01   1.00800           0
      7876 MEMB     70       OSM      H18U     HAL3     0.900000E-01   1.00800           0
      7877 MEMB     70       OSM      C1F      C        0.550000       12.0110           0
      7878 MEMB     70       OSM      OF       O       -0.600000       15.9994           0
      7879 MEMB     70       OSM      C2F      CTL2    -0.700000E-01   12.0110           0
      7880 MEMB     70       OSM      H2F      HAL2     0.600000E-01   1.00800           0
      7881 MEMB     70       OSM      H2G      HAL2     0.600000E-01   1.00800           0
      7882 MEMB     70       OSM      C3F      CTL2    -0.180000       12.0110           0
      7883 MEMB     70       OSM      H3F      HAL2     0.900000E-01   1.00800           0
      7884 MEMB     70       OSM      H3G      HAL2     0.900000E-01   1.00800           0
      7885 MEMB     70       OSM      C4F      CTL2    -0.180000       12.0110           0
      7886 MEMB     70       OSM      H4F      HAL2     0.900000E-01   1.00800           0
      7887 MEMB     70       OSM      H4G      HAL2     0.900000E-01   1.00800           0
      7888 MEMB     70       OSM      C5F      CTL2    -0.180000       12.0110           0
      7889 MEMB     70       OSM      H5F      HAL2     0.900000E-01   1.00800           0
      7890 MEMB     70       OSM      H5G      HAL2     0.900000E-01   1.00800           0
      7891 MEMB     70       OSM      C6F      CTL2    -0.180000       12.0110           0
      7892 MEMB     70       OSM      H6F      HAL2     0.900000E-01   1.00800           0
      7893 MEMB     70       OSM      H6G      HAL2     0.900000E-01   1.00800           0
      7894 MEMB     70       OSM      C7F      CTL2    -0.180000       12.0110           0
      7895 MEMB     70       OSM      H7F      HAL2     0.900000E-01   1.00800           0
      7896 MEMB     70       OSM      H7G      HAL2     0.900000E-01   1.00800           0
      7897 MEMB     70       OSM      C8F      CTL2    -0.180000       12.0110           0
      7898 MEMB     70       OSM      H8F      HAL2     0.900000E-01   1.00800           0
      7899 MEMB     70       OSM      H8G      HAL2     0.900000E-01   1.00800           0
      7900 MEMB     70       OSM      C9F      CEL1    -0.150000       12.0110           0
      7901 MEMB     70       OSM      H9F      HEL1     0.150000       1.00800           0
      7902 MEMB     70       OSM      C10F     CEL1    -0.150000       12.0110           0
      7903 MEMB     70       OSM      H10F     HEL1     0.150000       1.00800           0
      7904 MEMB     70       OSM      C11F     CTL2    -0.180000       12.0110           0
      7905 MEMB     70       OSM      H11F     HAL2     0.900000E-01   1.00800           0
      7906 MEMB     70       OSM      H11G     HAL2     0.900000E-01   1.00800           0
      7907 MEMB     70       OSM      C12F     CTL2    -0.180000       12.0110           0
      7908 MEMB     70       OSM      H12F     HAL2     0.900000E-01   1.00800           0
      7909 MEMB     70       OSM      H12G     HAL2     0.900000E-01   1.00800           0
      7910 MEMB     70       OSM      C13F     CTL2    -0.180000       12.0110           0
      7911 MEMB     70       OSM      H13F     HAL2     0.900000E-01   1.00800           0
      7912 MEMB     70       OSM      H13G     HAL2     0.900000E-01   1.00800           0
      7913 MEMB     70       OSM      C14F     CTL2    -0.180000       12.0110           0
      7914 MEMB     70       OSM      H14F     HAL2     0.900000E-01   1.00800           0
      7915 MEMB     70       OSM      H14G     HAL2     0.900000E-01   1.00800           0
      7916 MEMB     70       OSM      C15F     CTL2    -0.180000       12.0110           0
      7917 MEMB     70       OSM      H15F     HAL2     0.900000E-01   1.00800           0
      7918 MEMB     70       OSM      H15G     HAL2     0.900000E-01   1.00800           0
      7919 MEMB     70       OSM      C16F     CTL2    -0.180000       12.0110           0
      7920 MEMB     70       OSM      H16F     HAL2     0.900000E-01   1.00800           0
      7921 MEMB     70       OSM      H16G     HAL2     0.900000E-01   1.00800           0
      7922 MEMB     70       OSM      C17F     CTL2    -0.180000       12.0110           0
      7923 MEMB     70       OSM      H17F     HAL2     0.900000E-01   1.00800           0
      7924 MEMB     70       OSM      H17G     HAL2     0.900000E-01   1.00800           0
      7925 MEMB     70       OSM      C18F     CTL3    -0.270000       12.0110           0
      7926 MEMB     70       OSM      H18F     HAL3     0.900000E-01   1.00800           0
      7927 MEMB     70       OSM      H18G     HAL3     0.900000E-01   1.00800           0
      7928 MEMB     70       OSM      H18H     HAL3     0.900000E-01   1.00800           0
      7929 MEMB     71       OSM      N        NTL     -0.600000       14.0070           0
      7930 MEMB     71       OSM      C15      CTL5    -0.350000       12.0110           0
      7931 MEMB     71       OSM      H15A     HL       0.250000       1.00800           0
      7932 MEMB     71       OSM      H15B     HL       0.250000       1.00800           0
      7933 MEMB     71       OSM      H15C     HL       0.250000       1.00800           0
      7934 MEMB     71       OSM      C14      CTL5    -0.350000       12.0110           0
      7935 MEMB     71       OSM      H14A     HL       0.250000       1.00800           0
      7936 MEMB     71       OSM      H14B     HL       0.250000       1.00800           0
      7937 MEMB     71       OSM      H14C     HL       0.250000       1.00800           0
      7938 MEMB     71       OSM      C13      CTL5    -0.350000       12.0110           0
      7939 MEMB     71       OSM      H13A     HL       0.250000       1.00800           0
      7940 MEMB     71       OSM      H13B     HL       0.250000       1.00800           0
      7941 MEMB     71       OSM      H13C     HL       0.250000       1.00800           0
      7942 MEMB     71       OSM      C12      CTL2    -0.100000       12.0110           0
      7943 MEMB     71       OSM      H12A     HL       0.250000       1.00800           0
      7944 MEMB     71       OSM      H12B     HL       0.250000       1.00800           0
      7945 MEMB     71       OSM      C11      CTL2    -0.800000E-01   12.0110           0
      7946 MEMB     71       OSM      H11A     HAL2     0.900000E-01   1.00800           0
      7947 MEMB     71       OSM      H11B     HAL2     0.900000E-01   1.00800           0
      7948 MEMB     71       OSM      P        PL        1.50000       30.9740           0
      7949 MEMB     71       OSM      O13      O2L     -0.780000       15.9994           0
      7950 MEMB     71       OSM      O14      O2L     -0.780000       15.9994           0
      7951 MEMB     71       OSM      O11      OSLP    -0.570000       15.9994           0
      7952 MEMB     71       OSM      O12      OSLP    -0.570000       15.9994           0
      7953 MEMB     71       OSM      C1S      CTL2    -0.800000E-01   12.0110           0
      7954 MEMB     71       OSM      H1S      HAL2     0.900000E-01   1.00800           0
      7955 MEMB     71       OSM      H1T      HAL2     0.900000E-01   1.00800           0
      7956 MEMB     71       OSM      NF       NHL     -0.700000       14.0070           0
      7957 MEMB     71       OSM      HNF      H        0.350000       1.00800           0
      7958 MEMB     71       OSM      C2S      CTL1     0.300000       12.0110           0
      7959 MEMB     71       OSM      H2S      HAL1     0.500000E-01   1.00800           0
      7960 MEMB     71       OSM      C3S      CTO1     0.500000       12.0110           0
      7961 MEMB     71       OSM      H3S      HAL1    -0.110000       1.00800           0
      7962 MEMB     71       OSM      O3       OHL     -0.690000       15.9994           0
      7963 MEMB     71       OSM      HO3      HOL      0.300000       1.00800           0
      7964 MEMB     71       OSM      C4S      CEL3    -0.150000       12.0110           0
      7965 MEMB     71       OSM      H4S      HEL1     0.150000       1.00800           0
      7966 MEMB     71       OSM      C5S      CEL3    -0.150000       12.0110           0
      7967 MEMB     71       OSM      H5S      HEL1     0.150000       1.00800           0
      7968 MEMB     71       OSM      C6S      CTL2    -0.180000       12.0110           0
      7969 MEMB     71       OSM      H6S      HAL2     0.900000E-01   1.00800           0
      7970 MEMB     71       OSM      H6T      HAL2     0.900000E-01   1.00800           0
      7971 MEMB     71       OSM      C7S      CTL2    -0.180000       12.0110           0
      7972 MEMB     71       OSM      H7S      HAL2     0.900000E-01   1.00800           0
      7973 MEMB     71       OSM      H7T      HAL2     0.900000E-01   1.00800           0
      7974 MEMB     71       OSM      C8S      CTL2    -0.180000       12.0110           0
      7975 MEMB     71       OSM      H8S      HAL2     0.900000E-01   1.00800           0
      7976 MEMB     71       OSM      H8T      HAL2     0.900000E-01   1.00800           0
      7977 MEMB     71       OSM      C9S      CTL2    -0.180000       12.0110           0
      7978 MEMB     71       OSM      H9S      HAL2     0.900000E-01   1.00800           0
      7979 MEMB     71       OSM      H9T      HAL2     0.900000E-01   1.00800           0
      7980 MEMB     71       OSM      C10S     CTL2    -0.180000       12.0110           0
      7981 MEMB     71       OSM      H10S     HAL2     0.900000E-01   1.00800           0
      7982 MEMB     71       OSM      H10T     HAL2     0.900000E-01   1.00800           0
      7983 MEMB     71       OSM      C11S     CTL2    -0.180000       12.0110           0
      7984 MEMB     71       OSM      H11S     HAL2     0.900000E-01   1.00800           0
      7985 MEMB     71       OSM      H11T     HAL2     0.900000E-01   1.00800           0
      7986 MEMB     71       OSM      C12S     CTL2    -0.180000       12.0110           0
      7987 MEMB     71       OSM      H12S     HAL2     0.900000E-01   1.00800           0
      7988 MEMB     71       OSM      H12T     HAL2     0.900000E-01   1.00800           0
      7989 MEMB     71       OSM      C13S     CTL2    -0.180000       12.0110           0
      7990 MEMB     71       OSM      H13S     HAL2     0.900000E-01   1.00800           0
      7991 MEMB     71       OSM      H13T     HAL2     0.900000E-01   1.00800           0
      7992 MEMB     71       OSM      C14S     CTL2    -0.180000       12.0110           0
      7993 MEMB     71       OSM      H14S     HAL2     0.900000E-01   1.00800           0
      7994 MEMB     71       OSM      H14T     HAL2     0.900000E-01   1.00800           0
      7995 MEMB     71       OSM      C15S     CTL2    -0.180000       12.0110           0
      7996 MEMB     71       OSM      H15S     HAL2     0.900000E-01   1.00800           0
      7997 MEMB     71       OSM      H15T     HAL2     0.900000E-01   1.00800           0
      7998 MEMB     71       OSM      C16S     CTL2    -0.180000       12.0110           0
      7999 MEMB     71       OSM      H16S     HAL2     0.900000E-01   1.00800           0
      8000 MEMB     71       OSM      H16T     HAL2     0.900000E-01   1.00800           0
      8001 MEMB     71       OSM      C17S     CTL2    -0.180000       12.0110           0
      8002 MEMB     71       OSM      H17S     HAL2     0.900000E-01   1.00800           0
      8003 MEMB     71       OSM      H17T     HAL2     0.900000E-01   1.00800           0
      8004 MEMB     71       OSM      C18S     CTL3    -0.270000       12.0110           0
      8005 MEMB     71       OSM      H18S     HAL3     0.900000E-01   1.00800           0
      8006 MEMB     71       OSM      H18T     HAL3     0.900000E-01   1.00800           0
      8007 MEMB     71       OSM      H18U     HAL3     0.900000E-01   1.00800           0
      8008 MEMB     71       OSM      C1F      C        0.550000       12.0110           0
      8009 MEMB     71       OSM      OF       O       -0.600000       15.9994           0
      8010 MEMB     71       OSM      C2F      CTL2    -0.700000E-01   12.0110           0
      8011 MEMB     71       OSM      H2F      HAL2     0.600000E-01   1.00800           0
      8012 MEMB     71       OSM      H2G      HAL2     0.600000E-01   1.00800           0
      8013 MEMB     71       OSM      C3F      CTL2    -0.180000       12.0110           0
      8014 MEMB     71       OSM      H3F      HAL2     0.900000E-01   1.00800           0
      8015 MEMB     71       OSM      H3G      HAL2     0.900000E-01   1.00800           0
      8016 MEMB     71       OSM      C4F      CTL2    -0.180000       12.0110           0
      8017 MEMB     71       OSM      H4F      HAL2     0.900000E-01   1.00800           0
      8018 MEMB     71       OSM      H4G      HAL2     0.900000E-01   1.00800           0
      8019 MEMB     71       OSM      C5F      CTL2    -0.180000       12.0110           0
      8020 MEMB     71       OSM      H5F      HAL2     0.900000E-01   1.00800           0
      8021 MEMB     71       OSM      H5G      HAL2     0.900000E-01   1.00800           0
      8022 MEMB     71       OSM      C6F      CTL2    -0.180000       12.0110           0
      8023 MEMB     71       OSM      H6F      HAL2     0.900000E-01   1.00800           0
      8024 MEMB     71       OSM      H6G      HAL2     0.900000E-01   1.00800           0
      8025 MEMB     71       OSM      C7F      CTL2    -0.180000       12.0110           0
      8026 MEMB     71       OSM      H7F      HAL2     0.900000E-01   1.00800           0
      8027 MEMB     71       OSM      H7G      HAL2     0.900000E-01   1.00800           0
      8028 MEMB     71       OSM      C8F      CTL2    -0.180000       12.0110           0
      8029 MEMB     71       OSM      H8F      HAL2     0.900000E-01   1.00800           0
      8030 MEMB     71       OSM      H8G      HAL2     0.900000E-01   1.00800           0
      8031 MEMB     71       OSM      C9F      CEL1    -0.150000       12.0110           0
      8032 MEMB     71       OSM      H9F      HEL1     0.150000       1.00800           0
      8033 MEMB     71       OSM      C10F     CEL1    -0.150000       12.0110           0
      8034 MEMB     71       OSM      H10F     HEL1     0.150000       1.00800           0
      8035 MEMB     71       OSM      C11F     CTL2    -0.180000       12.0110           0
      8036 MEMB     71       OSM      H11F     HAL2     0.900000E-01   1.00800           0
      8037 MEMB     71       OSM      H11G     HAL2     0.900000E-01   1.00800           0
      8038 MEMB     71       OSM      C12F     CTL2    -0.180000       12.0110           0
      8039 MEMB     71       OSM      H12F     HAL2     0.900000E-01   1.00800           0
      8040 MEMB     71       OSM      H12G     HAL2     0.900000E-01   1.00800           0
      8041 MEMB     71       OSM      C13F     CTL2    -0.180000       12.0110           0
      8042 MEMB     71       OSM      H13F     HAL2     0.900000E-01   1.00800           0
      8043 MEMB     71       OSM      H13G     HAL2     0.900000E-01   1.00800           0
      8044 MEMB     71       OSM      C14F     CTL2    -0.180000       12.0110           0
      8045 MEMB     71       OSM      H14F     HAL2     0.900000E-01   1.00800           0
      8046 MEMB     71       OSM      H14G     HAL2     0.900000E-01   1.00800           0
      8047 MEMB     71       OSM      C15F     CTL2    -0.180000       12.0110           0
      8048 MEMB     71       OSM      H15F     HAL2     0.900000E-01   1.00800           0
      8049 MEMB     71       OSM      H15G     HAL2     0.900000E-01   1.00800           0
      8050 MEMB     71       OSM      C16F     CTL2    -0.180000       12.0110           0
      8051 MEMB     71       OSM      H16F     HAL2     0.900000E-01   1.00800           0
      8052 MEMB     71       OSM      H16G     HAL2     0.900000E-01   1.00800           0
      8053 MEMB     71       OSM      C17F     CTL2    -0.180000       12.0110           0
      8054 MEMB     71       OSM      H17F     HAL2     0.900000E-01   1.00800           0
      8055 MEMB     71       OSM      H17G     HAL2     0.900000E-01   1.00800           0
      8056 MEMB     71       OSM      C18F     CTL3    -0.270000       12.0110           0
      8057 MEMB     71       OSM      H18F     HAL3     0.900000E-01   1.00800           0
      8058 MEMB     71       OSM      H18G     HAL3     0.900000E-01   1.00800           0
      8059 MEMB     71       OSM      H18H     HAL3     0.900000E-01   1.00800           0
      8060 MEMB     72       SAPC     N        NTL     -0.600000       14.0070           0
      8061 MEMB     72       SAPC     C12      CTL2    -0.100000       12.0110           0
      8062 MEMB     72       SAPC     H12A     HL       0.250000       1.00800           0
      8063 MEMB     72       SAPC     H12B     HL       0.250000       1.00800           0
      8064 MEMB     72       SAPC     C13      CTL5    -0.350000       12.0110           0
      8065 MEMB     72       SAPC     H13A     HL       0.250000       1.00800           0
      8066 MEMB     72       SAPC     H13B     HL       0.250000       1.00800           0
      8067 MEMB     72       SAPC     H13C     HL       0.250000       1.00800           0
      8068 MEMB     72       SAPC     C14      CTL5    -0.350000       12.0110           0
      8069 MEMB     72       SAPC     H14A     HL       0.250000       1.00800           0
      8070 MEMB     72       SAPC     H14B     HL       0.250000       1.00800           0
      8071 MEMB     72       SAPC     H14C     HL       0.250000       1.00800           0
      8072 MEMB     72       SAPC     C15      CTL5    -0.350000       12.0110           0
      8073 MEMB     72       SAPC     H15A     HL       0.250000       1.00800           0
      8074 MEMB     72       SAPC     H15B     HL       0.250000       1.00800           0
      8075 MEMB     72       SAPC     H15C     HL       0.250000       1.00800           0
      8076 MEMB     72       SAPC     C11      CTL2    -0.800000E-01   12.0110           0
      8077 MEMB     72       SAPC     H11A     HAL2     0.900000E-01   1.00800           0
      8078 MEMB     72       SAPC     H11B     HAL2     0.900000E-01   1.00800           0
      8079 MEMB     72       SAPC     P        PL        1.50000       30.9740           0
      8080 MEMB     72       SAPC     O13      O2L     -0.780000       15.9994           0
      8081 MEMB     72       SAPC     O14      O2L     -0.780000       15.9994           0
      8082 MEMB     72       SAPC     O12      OSLP    -0.570000       15.9994           0
      8083 MEMB     72       SAPC     O11      OSLP    -0.570000       15.9994           0
      8084 MEMB     72       SAPC     C1       CTL2    -0.800000E-01   12.0110           0
      8085 MEMB     72       SAPC     HA       HAL2     0.900000E-01   1.00800           0
      8086 MEMB     72       SAPC     HB       HAL2     0.900000E-01   1.00800           0
      8087 MEMB     72       SAPC     C2       CTL1     0.170000       12.0110           0
      8088 MEMB     72       SAPC     HS       HAL1     0.900000E-01   1.00800           0
      8089 MEMB     72       SAPC     O21      OSL     -0.490000       15.9994           0
      8090 MEMB     72       SAPC     C21      CL       0.900000       12.0110           0
      8091 MEMB     72       SAPC     O22      OBL     -0.630000       15.9994           0
      8092 MEMB     72       SAPC     C22      CTL2    -0.220000       12.0110           0
      8093 MEMB     72       SAPC     H2R      HAL2     0.900000E-01   1.00800           0
      8094 MEMB     72       SAPC     H2S      HAL2     0.900000E-01   1.00800           0
      8095 MEMB     72       SAPC     C3       CTL2     0.800000E-01   12.0110           0
      8096 MEMB     72       SAPC     HX       HAL2     0.900000E-01   1.00800           0
      8097 MEMB     72       SAPC     HY       HAL2     0.900000E-01   1.00800           0
      8098 MEMB     72       SAPC     O31      OSL     -0.490000       15.9994           0
      8099 MEMB     72       SAPC     C31      CL       0.900000       12.0110           0
      8100 MEMB     72       SAPC     O32      OBL     -0.630000       15.9994           0
      8101 MEMB     72       SAPC     C32      CTL2    -0.220000       12.0110           0
      8102 MEMB     72       SAPC     H2X      HAL2     0.900000E-01   1.00800           0
      8103 MEMB     72       SAPC     H2Y      HAL2     0.900000E-01   1.00800           0
      8104 MEMB     72       SAPC     C23      CTL2    -0.180000       12.0110           0
      8105 MEMB     72       SAPC     H3R      HAL2     0.900000E-01   1.00800           0
      8106 MEMB     72       SAPC     H3S      HAL2     0.900000E-01   1.00800           0
      8107 MEMB     72       SAPC     C24      CTL2    -0.180000       12.0110           0
      8108 MEMB     72       SAPC     H4R      HAL2     0.900000E-01   1.00800           0
      8109 MEMB     72       SAPC     H4S      HAL2     0.900000E-01   1.00800           0
      8110 MEMB     72       SAPC     C25      CEL1    -0.150000       12.0110           0
      8111 MEMB     72       SAPC     H5R      HEL1     0.150000       1.00800           0
      8112 MEMB     72       SAPC     C26      CEL1    -0.150000       12.0110           0
      8113 MEMB     72       SAPC     H6R      HEL1     0.150000       1.00800           0
      8114 MEMB     72       SAPC     C27      CTL2    -0.180000       12.0110           0
      8115 MEMB     72       SAPC     H7R      HAL2     0.900000E-01   1.00800           0
      8116 MEMB     72       SAPC     H7S      HAL2     0.900000E-01   1.00800           0
      8117 MEMB     72       SAPC     C28      CEL1    -0.150000       12.0110           0
      8118 MEMB     72       SAPC     H8R      HEL1     0.150000       1.00800           0
      8119 MEMB     72       SAPC     C29      CEL1    -0.150000       12.0110           0
      8120 MEMB     72       SAPC     H9R      HEL1     0.150000       1.00800           0
      8121 MEMB     72       SAPC     C210     CTL2    -0.180000       12.0110           0
      8122 MEMB     72       SAPC     H10R     HAL2     0.900000E-01   1.00800           0
      8123 MEMB     72       SAPC     H10S     HAL2     0.900000E-01   1.00800           0
      8124 MEMB     72       SAPC     C211     CEL1    -0.150000       12.0110           0
      8125 MEMB     72       SAPC     H11R     HEL1     0.150000       1.00800           0
      8126 MEMB     72       SAPC     C212     CEL1    -0.150000       12.0110           0
      8127 MEMB     72       SAPC     H12R     HEL1     0.150000       1.00800           0
      8128 MEMB     72       SAPC     C213     CTL2    -0.180000       12.0110           0
      8129 MEMB     72       SAPC     H13R     HAL2     0.900000E-01   1.00800           0
      8130 MEMB     72       SAPC     H13S     HAL2     0.900000E-01   1.00800           0
      8131 MEMB     72       SAPC     C214     CEL1    -0.150000       12.0110           0
      8132 MEMB     72       SAPC     H14R     HEL1     0.150000       1.00800           0
      8133 MEMB     72       SAPC     C215     CEL1    -0.150000       12.0110           0
      8134 MEMB     72       SAPC     H15R     HEL1     0.150000       1.00800           0
      8135 MEMB     72       SAPC     C216     CTL2    -0.180000       12.0110           0
      8136 MEMB     72       SAPC     H16R     HAL2     0.900000E-01   1.00800           0
      8137 MEMB     72       SAPC     H16S     HAL2     0.900000E-01   1.00800           0
      8138 MEMB     72       SAPC     C217     CTL2    -0.180000       12.0110           0
      8139 MEMB     72       SAPC     H17R     HAL2     0.900000E-01   1.00800           0
      8140 MEMB     72       SAPC     H17S     HAL2     0.900000E-01   1.00800           0
      8141 MEMB     72       SAPC     C218     CTL2    -0.270000       12.0110           0
      8142 MEMB     72       SAPC     H18R     HAL2     0.900000E-01   1.00800           0
      8143 MEMB     72       SAPC     H18S     HAL2     0.900000E-01   1.00800           0
      8144 MEMB     72       SAPC     C219     CTL2    -0.180000       12.0110           0
      8145 MEMB     72       SAPC     H19R     HAL2     0.900000E-01   1.00800           0
      8146 MEMB     72       SAPC     H19S     HAL2     0.900000E-01   1.00800           0
      8147 MEMB     72       SAPC     C220     CTL3    -0.180000       12.0110           0
      8148 MEMB     72       SAPC     H20R     HAL3     0.900000E-01   1.00800           0
      8149 MEMB     72       SAPC     H20S     HAL3     0.900000E-01   1.00800           0
      8150 MEMB     72       SAPC     H20T     HAL3     0.900000E-01   1.00800           0
      8151 MEMB     72       SAPC     C33      CTL2    -0.180000       12.0110           0
      8152 MEMB     72       SAPC     H3X      HAL2     0.900000E-01   1.00800           0
      8153 MEMB     72       SAPC     H3Y      HAL2     0.900000E-01   1.00800           0
      8154 MEMB     72       SAPC     C34      CTL2    -0.180000       12.0110           0
      8155 MEMB     72       SAPC     H4X      HAL2     0.900000E-01   1.00800           0
      8156 MEMB     72       SAPC     H4Y      HAL2     0.900000E-01   1.00800           0
      8157 MEMB     72       SAPC     C35      CTL2    -0.180000       12.0110           0
      8158 MEMB     72       SAPC     H5X      HAL2     0.900000E-01   1.00800           0
      8159 MEMB     72       SAPC     H5Y      HAL2     0.900000E-01   1.00800           0
      8160 MEMB     72       SAPC     C36      CTL2    -0.180000       12.0110           0
      8161 MEMB     72       SAPC     H6X      HAL2     0.900000E-01   1.00800           0
      8162 MEMB     72       SAPC     H6Y      HAL2     0.900000E-01   1.00800           0
      8163 MEMB     72       SAPC     C37      CTL2    -0.180000       12.0110           0
      8164 MEMB     72       SAPC     H7X      HAL2     0.900000E-01   1.00800           0
      8165 MEMB     72       SAPC     H7Y      HAL2     0.900000E-01   1.00800           0
      8166 MEMB     72       SAPC     C38      CTL2    -0.180000       12.0110           0
      8167 MEMB     72       SAPC     H8X      HAL2     0.900000E-01   1.00800           0
      8168 MEMB     72       SAPC     H8Y      HAL2     0.900000E-01   1.00800           0
      8169 MEMB     72       SAPC     C39      CTL2    -0.180000       12.0110           0
      8170 MEMB     72       SAPC     H9X      HAL2     0.900000E-01   1.00800           0
      8171 MEMB     72       SAPC     H9Y      HAL2     0.900000E-01   1.00800           0
      8172 MEMB     72       SAPC     C310     CTL2    -0.180000       12.0110           0
      8173 MEMB     72       SAPC     H10X     HAL2     0.900000E-01   1.00800           0
      8174 MEMB     72       SAPC     H10Y     HAL2     0.900000E-01   1.00800           0
      8175 MEMB     72       SAPC     C311     CTL2    -0.180000       12.0110           0
      8176 MEMB     72       SAPC     H11X     HAL2     0.900000E-01   1.00800           0
      8177 MEMB     72       SAPC     H11Y     HAL2     0.900000E-01   1.00800           0
      8178 MEMB     72       SAPC     C312     CTL2    -0.180000       12.0110           0
      8179 MEMB     72       SAPC     H12X     HAL2     0.900000E-01   1.00800           0
      8180 MEMB     72       SAPC     H12Y     HAL2     0.900000E-01   1.00800           0
      8181 MEMB     72       SAPC     C313     CTL2    -0.180000       12.0110           0
      8182 MEMB     72       SAPC     H13X     HAL2     0.900000E-01   1.00800           0
      8183 MEMB     72       SAPC     H13Y     HAL2     0.900000E-01   1.00800           0
      8184 MEMB     72       SAPC     C314     CTL2    -0.180000       12.0110           0
      8185 MEMB     72       SAPC     H14X     HAL2     0.900000E-01   1.00800           0
      8186 MEMB     72       SAPC     H14Y     HAL2     0.900000E-01   1.00800           0
      8187 MEMB     72       SAPC     C315     CTL2    -0.180000       12.0110           0
      8188 MEMB     72       SAPC     H15X     HAL2     0.900000E-01   1.00800           0
      8189 MEMB     72       SAPC     H15Y     HAL2     0.900000E-01   1.00800           0
      8190 MEMB     72       SAPC     C316     CTL2    -0.180000       12.0110           0
      8191 MEMB     72       SAPC     H16X     HAL2     0.900000E-01   1.00800           0
      8192 MEMB     72       SAPC     H16Y     HAL2     0.900000E-01   1.00800           0
      8193 MEMB     72       SAPC     C317     CTL2    -0.180000       12.0110           0
      8194 MEMB     72       SAPC     H17X     HAL2     0.900000E-01   1.00800           0
      8195 MEMB     72       SAPC     H17Y     HAL2     0.900000E-01   1.00800           0
      8196 MEMB     72       SAPC     C318     CTL3    -0.270000       12.0110           0
      8197 MEMB     72       SAPC     H18X     HAL3     0.900000E-01   1.00800           0
      8198 MEMB     72       SAPC     H18Y     HAL3     0.900000E-01   1.00800           0
      8199 MEMB     72       SAPC     H18Z     HAL3     0.900000E-01   1.00800           0
      8200 MEMB     73       OSM      N        NTL     -0.600000       14.0070           0
      8201 MEMB     73       OSM      C15      CTL5    -0.350000       12.0110           0
      8202 MEMB     73       OSM      H15A     HL       0.250000       1.00800           0
      8203 MEMB     73       OSM      H15B     HL       0.250000       1.00800           0
      8204 MEMB     73       OSM      H15C     HL       0.250000       1.00800           0
      8205 MEMB     73       OSM      C14      CTL5    -0.350000       12.0110           0
      8206 MEMB     73       OSM      H14A     HL       0.250000       1.00800           0
      8207 MEMB     73       OSM      H14B     HL       0.250000       1.00800           0
      8208 MEMB     73       OSM      H14C     HL       0.250000       1.00800           0
      8209 MEMB     73       OSM      C13      CTL5    -0.350000       12.0110           0
      8210 MEMB     73       OSM      H13A     HL       0.250000       1.00800           0
      8211 MEMB     73       OSM      H13B     HL       0.250000       1.00800           0
      8212 MEMB     73       OSM      H13C     HL       0.250000       1.00800           0
      8213 MEMB     73       OSM      C12      CTL2    -0.100000       12.0110           0
      8214 MEMB     73       OSM      H12A     HL       0.250000       1.00800           0
      8215 MEMB     73       OSM      H12B     HL       0.250000       1.00800           0
      8216 MEMB     73       OSM      C11      CTL2    -0.800000E-01   12.0110           0
      8217 MEMB     73       OSM      H11A     HAL2     0.900000E-01   1.00800           0
      8218 MEMB     73       OSM      H11B     HAL2     0.900000E-01   1.00800           0
      8219 MEMB     73       OSM      P        PL        1.50000       30.9740           0
      8220 MEMB     73       OSM      O13      O2L     -0.780000       15.9994           0
      8221 MEMB     73       OSM      O14      O2L     -0.780000       15.9994           0
      8222 MEMB     73       OSM      O11      OSLP    -0.570000       15.9994           0
      8223 MEMB     73       OSM      O12      OSLP    -0.570000       15.9994           0
      8224 MEMB     73       OSM      C1S      CTL2    -0.800000E-01   12.0110           0
      8225 MEMB     73       OSM      H1S      HAL2     0.900000E-01   1.00800           0
      8226 MEMB     73       OSM      H1T      HAL2     0.900000E-01   1.00800           0
      8227 MEMB     73       OSM      NF       NHL     -0.700000       14.0070           0
      8228 MEMB     73       OSM      HNF      H        0.350000       1.00800           0
      8229 MEMB     73       OSM      C2S      CTL1     0.300000       12.0110           0
      8230 MEMB     73       OSM      H2S      HAL1     0.500000E-01   1.00800           0
      8231 MEMB     73       OSM      C3S      CTO1     0.500000       12.0110           0
      8232 MEMB     73       OSM      H3S      HAL1    -0.110000       1.00800           0
      8233 MEMB     73       OSM      O3       OHL     -0.690000       15.9994           0
      8234 MEMB     73       OSM      HO3      HOL      0.300000       1.00800           0
      8235 MEMB     73       OSM      C4S      CEL3    -0.150000       12.0110           0
      8236 MEMB     73       OSM      H4S      HEL1     0.150000       1.00800           0
      8237 MEMB     73       OSM      C5S      CEL3    -0.150000       12.0110           0
      8238 MEMB     73       OSM      H5S      HEL1     0.150000       1.00800           0
      8239 MEMB     73       OSM      C6S      CTL2    -0.180000       12.0110           0
      8240 MEMB     73       OSM      H6S      HAL2     0.900000E-01   1.00800           0
      8241 MEMB     73       OSM      H6T      HAL2     0.900000E-01   1.00800           0
      8242 MEMB     73       OSM      C7S      CTL2    -0.180000       12.0110           0
      8243 MEMB     73       OSM      H7S      HAL2     0.900000E-01   1.00800           0
      8244 MEMB     73       OSM      H7T      HAL2     0.900000E-01   1.00800           0
      8245 MEMB     73       OSM      C8S      CTL2    -0.180000       12.0110           0
      8246 MEMB     73       OSM      H8S      HAL2     0.900000E-01   1.00800           0
      8247 MEMB     73       OSM      H8T      HAL2     0.900000E-01   1.00800           0
      8248 MEMB     73       OSM      C9S      CTL2    -0.180000       12.0110           0
      8249 MEMB     73       OSM      H9S      HAL2     0.900000E-01   1.00800           0
      8250 MEMB     73       OSM      H9T      HAL2     0.900000E-01   1.00800           0
      8251 MEMB     73       OSM      C10S     CTL2    -0.180000       12.0110           0
      8252 MEMB     73       OSM      H10S     HAL2     0.900000E-01   1.00800           0
      8253 MEMB     73       OSM      H10T     HAL2     0.900000E-01   1.00800           0
      8254 MEMB     73       OSM      C11S     CTL2    -0.180000       12.0110           0
      8255 MEMB     73       OSM      H11S     HAL2     0.900000E-01   1.00800           0
      8256 MEMB     73       OSM      H11T     HAL2     0.900000E-01   1.00800           0
      8257 MEMB     73       OSM      C12S     CTL2    -0.180000       12.0110           0
      8258 MEMB     73       OSM      H12S     HAL2     0.900000E-01   1.00800           0
      8259 MEMB     73       OSM      H12T     HAL2     0.900000E-01   1.00800           0
      8260 MEMB     73       OSM      C13S     CTL2    -0.180000       12.0110           0
      8261 MEMB     73       OSM      H13S     HAL2     0.900000E-01   1.00800           0
      8262 MEMB     73       OSM      H13T     HAL2     0.900000E-01   1.00800           0
      8263 MEMB     73       OSM      C14S     CTL2    -0.180000       12.0110           0
      8264 MEMB     73       OSM      H14S     HAL2     0.900000E-01   1.00800           0
      8265 MEMB     73       OSM      H14T     HAL2     0.900000E-01   1.00800           0
      8266 MEMB     73       OSM      C15S     CTL2    -0.180000       12.0110           0
      8267 MEMB     73       OSM      H15S     HAL2     0.900000E-01   1.00800           0
      8268 MEMB     73       OSM      H15T     HAL2     0.900000E-01   1.00800           0
      8269 MEMB     73       OSM      C16S     CTL2    -0.180000       12.0110           0
      8270 MEMB     73       OSM      H16S     HAL2     0.900000E-01   1.00800           0
      8271 MEMB     73       OSM      H16T     HAL2     0.900000E-01   1.00800           0
      8272 MEMB     73       OSM      C17S     CTL2    -0.180000       12.0110           0
      8273 MEMB     73       OSM      H17S     HAL2     0.900000E-01   1.00800           0
      8274 MEMB     73       OSM      H17T     HAL2     0.900000E-01   1.00800           0
      8275 MEMB     73       OSM      C18S     CTL3    -0.270000       12.0110           0
      8276 MEMB     73       OSM      H18S     HAL3     0.900000E-01   1.00800           0
      8277 MEMB     73       OSM      H18T     HAL3     0.900000E-01   1.00800           0
      8278 MEMB     73       OSM      H18U     HAL3     0.900000E-01   1.00800           0
      8279 MEMB     73       OSM      C1F      C        0.550000       12.0110           0
      8280 MEMB     73       OSM      OF       O       -0.600000       15.9994           0
      8281 MEMB     73       OSM      C2F      CTL2    -0.700000E-01   12.0110           0
      8282 MEMB     73       OSM      H2F      HAL2     0.600000E-01   1.00800           0
      8283 MEMB     73       OSM      H2G      HAL2     0.600000E-01   1.00800           0
      8284 MEMB     73       OSM      C3F      CTL2    -0.180000       12.0110           0
      8285 MEMB     73       OSM      H3F      HAL2     0.900000E-01   1.00800           0
      8286 MEMB     73       OSM      H3G      HAL2     0.900000E-01   1.00800           0
      8287 MEMB     73       OSM      C4F      CTL2    -0.180000       12.0110           0
      8288 MEMB     73       OSM      H4F      HAL2     0.900000E-01   1.00800           0
      8289 MEMB     73       OSM      H4G      HAL2     0.900000E-01   1.00800           0
      8290 MEMB     73       OSM      C5F      CTL2    -0.180000       12.0110           0
      8291 MEMB     73       OSM      H5F      HAL2     0.900000E-01   1.00800           0
      8292 MEMB     73       OSM      H5G      HAL2     0.900000E-01   1.00800           0
      8293 MEMB     73       OSM      C6F      CTL2    -0.180000       12.0110           0
      8294 MEMB     73       OSM      H6F      HAL2     0.900000E-01   1.00800           0
      8295 MEMB     73       OSM      H6G      HAL2     0.900000E-01   1.00800           0
      8296 MEMB     73       OSM      C7F      CTL2    -0.180000       12.0110           0
      8297 MEMB     73       OSM      H7F      HAL2     0.900000E-01   1.00800           0
      8298 MEMB     73       OSM      H7G      HAL2     0.900000E-01   1.00800           0
      8299 MEMB     73       OSM      C8F      CTL2    -0.180000       12.0110           0
      8300 MEMB     73       OSM      H8F      HAL2     0.900000E-01   1.00800           0
      8301 MEMB     73       OSM      H8G      HAL2     0.900000E-01   1.00800           0
      8302 MEMB     73       OSM      C9F      CEL1    -0.150000       12.0110           0
      8303 MEMB     73       OSM      H9F      HEL1     0.150000       1.00800           0
      8304 MEMB     73       OSM      C10F     CEL1    -0.150000       12.0110           0
      8305 MEMB     73       OSM      H10F     HEL1     0.150000       1.00800           0
      8306 MEMB     73       OSM      C11F     CTL2    -0.180000       12.0110           0
      8307 MEMB     73       OSM      H11F     HAL2     0.900000E-01   1.00800           0
      8308 MEMB     73       OSM      H11G     HAL2     0.900000E-01   1.00800           0
      8309 MEMB     73       OSM      C12F     CTL2    -0.180000       12.0110           0
      8310 MEMB     73       OSM      H12F     HAL2     0.900000E-01   1.00800           0
      8311 MEMB     73       OSM      H12G     HAL2     0.900000E-01   1.00800           0
      8312 MEMB     73       OSM      C13F     CTL2    -0.180000       12.0110           0
      8313 MEMB     73       OSM      H13F     HAL2     0.900000E-01   1.00800           0
      8314 MEMB     73       OSM      H13G     HAL2     0.900000E-01   1.00800           0
      8315 MEMB     73       OSM      C14F     CTL2    -0.180000       12.0110           0
      8316 MEMB     73       OSM      H14F     HAL2     0.900000E-01   1.00800           0
      8317 MEMB     73       OSM      H14G     HAL2     0.900000E-01   1.00800           0
      8318 MEMB     73       OSM      C15F     CTL2    -0.180000       12.0110           0
      8319 MEMB     73       OSM      H15F     HAL2     0.900000E-01   1.00800           0
      8320 MEMB     73       OSM      H15G     HAL2     0.900000E-01   1.00800           0
      8321 MEMB     73       OSM      C16F     CTL2    -0.180000       12.0110           0
      8322 MEMB     73       OSM      H16F     HAL2     0.900000E-01   1.00800           0
      8323 MEMB     73       OSM      H16G     HAL2     0.900000E-01   1.00800           0
      8324 MEMB     73       OSM      C17F     CTL2    -0.180000       12.0110           0
      8325 MEMB     73       OSM      H17F     HAL2     0.900000E-01   1.00800           0
      8326 MEMB     73       OSM      H17G     HAL2     0.900000E-01   1.00800           0
      8327 MEMB     73       OSM      C18F     CTL3    -0.270000       12.0110           0
      8328 MEMB     73       OSM      H18F     HAL3     0.900000E-01   1.00800           0
      8329 MEMB     73       OSM      H18G     HAL3     0.900000E-01   1.00800           0
      8330 MEMB     73       OSM      H18H     HAL3     0.900000E-01   1.00800           0
      8331 MEMB     74       OSM      N        NTL     -0.600000       14.0070           0
      8332 MEMB     74       OSM      C15      CTL5    -0.350000       12.0110           0
      8333 MEMB     74       OSM      H15A     HL       0.250000       1.00800           0
      8334 MEMB     74       OSM      H15B     HL       0.250000       1.00800           0
      8335 MEMB     74       OSM      H15C     HL       0.250000       1.00800           0
      8336 MEMB     74       OSM      C14      CTL5    -0.350000       12.0110           0
      8337 MEMB     74       OSM      H14A     HL       0.250000       1.00800           0
      8338 MEMB     74       OSM      H14B     HL       0.250000       1.00800           0
      8339 MEMB     74       OSM      H14C     HL       0.250000       1.00800           0
      8340 MEMB     74       OSM      C13      CTL5    -0.350000       12.0110           0
      8341 MEMB     74       OSM      H13A     HL       0.250000       1.00800           0
      8342 MEMB     74       OSM      H13B     HL       0.250000       1.00800           0
      8343 MEMB     74       OSM      H13C     HL       0.250000       1.00800           0
      8344 MEMB     74       OSM      C12      CTL2    -0.100000       12.0110           0
      8345 MEMB     74       OSM      H12A     HL       0.250000       1.00800           0
      8346 MEMB     74       OSM      H12B     HL       0.250000       1.00800           0
      8347 MEMB     74       OSM      C11      CTL2    -0.800000E-01   12.0110           0
      8348 MEMB     74       OSM      H11A     HAL2     0.900000E-01   1.00800           0
      8349 MEMB     74       OSM      H11B     HAL2     0.900000E-01   1.00800           0
      8350 MEMB     74       OSM      P        PL        1.50000       30.9740           0
      8351 MEMB     74       OSM      O13      O2L     -0.780000       15.9994           0
      8352 MEMB     74       OSM      O14      O2L     -0.780000       15.9994           0
      8353 MEMB     74       OSM      O11      OSLP    -0.570000       15.9994           0
      8354 MEMB     74       OSM      O12      OSLP    -0.570000       15.9994           0
      8355 MEMB     74       OSM      C1S      CTL2    -0.800000E-01   12.0110           0
      8356 MEMB     74       OSM      H1S      HAL2     0.900000E-01   1.00800           0
      8357 MEMB     74       OSM      H1T      HAL2     0.900000E-01   1.00800           0
      8358 MEMB     74       OSM      NF       NHL     -0.700000       14.0070           0
      8359 MEMB     74       OSM      HNF      H        0.350000       1.00800           0
      8360 MEMB     74       OSM      C2S      CTL1     0.300000       12.0110           0
      8361 MEMB     74       OSM      H2S      HAL1     0.500000E-01   1.00800           0
      8362 MEMB     74       OSM      C3S      CTO1     0.500000       12.0110           0
      8363 MEMB     74       OSM      H3S      HAL1    -0.110000       1.00800           0
      8364 MEMB     74       OSM      O3       OHL     -0.690000       15.9994           0
      8365 MEMB     74       OSM      HO3      HOL      0.300000       1.00800           0
      8366 MEMB     74       OSM      C4S      CEL3    -0.150000       12.0110           0
      8367 MEMB     74       OSM      H4S      HEL1     0.150000       1.00800           0
      8368 MEMB     74       OSM      C5S      CEL3    -0.150000       12.0110           0
      8369 MEMB     74       OSM      H5S      HEL1     0.150000       1.00800           0
      8370 MEMB     74       OSM      C6S      CTL2    -0.180000       12.0110           0
      8371 MEMB     74       OSM      H6S      HAL2     0.900000E-01   1.00800           0
      8372 MEMB     74       OSM      H6T      HAL2     0.900000E-01   1.00800           0
      8373 MEMB     74       OSM      C7S      CTL2    -0.180000       12.0110           0
      8374 MEMB     74       OSM      H7S      HAL2     0.900000E-01   1.00800           0
      8375 MEMB     74       OSM      H7T      HAL2     0.900000E-01   1.00800           0
      8376 MEMB     74       OSM      C8S      CTL2    -0.180000       12.0110           0
      8377 MEMB     74       OSM      H8S      HAL2     0.900000E-01   1.00800           0
      8378 MEMB     74       OSM      H8T      HAL2     0.900000E-01   1.00800           0
      8379 MEMB     74       OSM      C9S      CTL2    -0.180000       12.0110           0
      8380 MEMB     74       OSM      H9S      HAL2     0.900000E-01   1.00800           0
      8381 MEMB     74       OSM      H9T      HAL2     0.900000E-01   1.00800           0
      8382 MEMB     74       OSM      C10S     CTL2    -0.180000       12.0110           0
      8383 MEMB     74       OSM      H10S     HAL2     0.900000E-01   1.00800           0
      8384 MEMB     74       OSM      H10T     HAL2     0.900000E-01   1.00800           0
      8385 MEMB     74       OSM      C11S     CTL2    -0.180000       12.0110           0
      8386 MEMB     74       OSM      H11S     HAL2     0.900000E-01   1.00800           0
      8387 MEMB     74       OSM      H11T     HAL2     0.900000E-01   1.00800           0
      8388 MEMB     74       OSM      C12S     CTL2    -0.180000       12.0110           0
      8389 MEMB     74       OSM      H12S     HAL2     0.900000E-01   1.00800           0
      8390 MEMB     74       OSM      H12T     HAL2     0.900000E-01   1.00800           0
      8391 MEMB     74       OSM      C13S     CTL2    -0.180000       12.0110           0
      8392 MEMB     74       OSM      H13S     HAL2     0.900000E-01   1.00800           0
      8393 MEMB     74       OSM      H13T     HAL2     0.900000E-01   1.00800           0
      8394 MEMB     74       OSM      C14S     CTL2    -0.180000       12.0110           0
      8395 MEMB     74       OSM      H14S     HAL2     0.900000E-01   1.00800           0
      8396 MEMB     74       OSM      H14T     HAL2     0.900000E-01   1.00800           0
      8397 MEMB     74       OSM      C15S     CTL2    -0.180000       12.0110           0
      8398 MEMB     74       OSM      H15S     HAL2     0.900000E-01   1.00800           0
      8399 MEMB     74       OSM      H15T     HAL2     0.900000E-01   1.00800           0
      8400 MEMB     74       OSM      C16S     CTL2    -0.180000       12.0110           0
      8401 MEMB     74       OSM      H16S     HAL2     0.900000E-01   1.00800           0
      8402 MEMB     74       OSM      H16T     HAL2     0.900000E-01   1.00800           0
      8403 MEMB     74       OSM      C17S     CTL2    -0.180000       12.0110           0
      8404 MEMB     74       OSM      H17S     HAL2     0.900000E-01   1.00800           0
      8405 MEMB     74       OSM      H17T     HAL2     0.900000E-01   1.00800           0
      8406 MEMB     74       OSM      C18S     CTL3    -0.270000       12.0110           0
      8407 MEMB     74       OSM      H18S     HAL3     0.900000E-01   1.00800           0
      8408 MEMB     74       OSM      H18T     HAL3     0.900000E-01   1.00800           0
      8409 MEMB     74       OSM      H18U     HAL3     0.900000E-01   1.00800           0
      8410 MEMB     74       OSM      C1F      C        0.550000       12.0110           0
      8411 MEMB     74       OSM      OF       O       -0.600000       15.9994           0
      8412 MEMB     74       OSM      C2F      CTL2    -0.700000E-01   12.0110           0
      8413 MEMB     74       OSM      H2F      HAL2     0.600000E-01   1.00800           0
      8414 MEMB     74       OSM      H2G      HAL2     0.600000E-01   1.00800           0
      8415 MEMB     74       OSM      C3F      CTL2    -0.180000       12.0110           0
      8416 MEMB     74       OSM      H3F      HAL2     0.900000E-01   1.00800           0
      8417 MEMB     74       OSM      H3G      HAL2     0.900000E-01   1.00800           0
      8418 MEMB     74       OSM      C4F      CTL2    -0.180000       12.0110           0
      8419 MEMB     74       OSM      H4F      HAL2     0.900000E-01   1.00800           0
      8420 MEMB     74       OSM      H4G      HAL2     0.900000E-01   1.00800           0
      8421 MEMB     74       OSM      C5F      CTL2    -0.180000       12.0110           0
      8422 MEMB     74       OSM      H5F      HAL2     0.900000E-01   1.00800           0
      8423 MEMB     74       OSM      H5G      HAL2     0.900000E-01   1.00800           0
      8424 MEMB     74       OSM      C6F      CTL2    -0.180000       12.0110           0
      8425 MEMB     74       OSM      H6F      HAL2     0.900000E-01   1.00800           0
      8426 MEMB     74       OSM      H6G      HAL2     0.900000E-01   1.00800           0
      8427 MEMB     74       OSM      C7F      CTL2    -0.180000       12.0110           0
      8428 MEMB     74       OSM      H7F      HAL2     0.900000E-01   1.00800           0
      8429 MEMB     74       OSM      H7G      HAL2     0.900000E-01   1.00800           0
      8430 MEMB     74       OSM      C8F      CTL2    -0.180000       12.0110           0
      8431 MEMB     74       OSM      H8F      HAL2     0.900000E-01   1.00800           0
      8432 MEMB     74       OSM      H8G      HAL2     0.900000E-01   1.00800           0
      8433 MEMB     74       OSM      C9F      CEL1    -0.150000       12.0110           0
      8434 MEMB     74       OSM      H9F      HEL1     0.150000       1.00800           0
      8435 MEMB     74       OSM      C10F     CEL1    -0.150000       12.0110           0
      8436 MEMB     74       OSM      H10F     HEL1     0.150000       1.00800           0
      8437 MEMB     74       OSM      C11F     CTL2    -0.180000       12.0110           0
      8438 MEMB     74       OSM      H11F     HAL2     0.900000E-01   1.00800           0
      8439 MEMB     74       OSM      H11G     HAL2     0.900000E-01   1.00800           0
      8440 MEMB     74       OSM      C12F     CTL2    -0.180000       12.0110           0
      8441 MEMB     74       OSM      H12F     HAL2     0.900000E-01   1.00800           0
      8442 MEMB     74       OSM      H12G     HAL2     0.900000E-01   1.00800           0
      8443 MEMB     74       OSM      C13F     CTL2    -0.180000       12.0110           0
      8444 MEMB     74       OSM      H13F     HAL2     0.900000E-01   1.00800           0
      8445 MEMB     74       OSM      H13G     HAL2     0.900000E-01   1.00800           0
      8446 MEMB     74       OSM      C14F     CTL2    -0.180000       12.0110           0
      8447 MEMB     74       OSM      H14F     HAL2     0.900000E-01   1.00800           0
      8448 MEMB     74       OSM      H14G     HAL2     0.900000E-01   1.00800           0
      8449 MEMB     74       OSM      C15F     CTL2    -0.180000       12.0110           0
      8450 MEMB     74       OSM      H15F     HAL2     0.900000E-01   1.00800           0
      8451 MEMB     74       OSM      H15G     HAL2     0.900000E-01   1.00800           0
      8452 MEMB     74       OSM      C16F     CTL2    -0.180000       12.0110           0
      8453 MEMB     74       OSM      H16F     HAL2     0.900000E-01   1.00800           0
      8454 MEMB     74       OSM      H16G     HAL2     0.900000E-01   1.00800           0
      8455 MEMB     74       OSM      C17F     CTL2    -0.180000       12.0110           0
      8456 MEMB     74       OSM      H17F     HAL2     0.900000E-01   1.00800           0
      8457 MEMB     74       OSM      H17G     HAL2     0.900000E-01   1.00800           0
      8458 MEMB     74       OSM      C18F     CTL3    -0.270000       12.0110           0
      8459 MEMB     74       OSM      H18F     HAL3     0.900000E-01   1.00800           0
      8460 MEMB     74       OSM      H18G     HAL3     0.900000E-01   1.00800           0
      8461 MEMB     74       OSM      H18H     HAL3     0.900000E-01   1.00800           0
      8462 MEMB     75       SAPS     N        NH3L    -0.300000       14.0070           0
      8463 MEMB     75       SAPS     HN1      HCL      0.330000       1.00800           0
      8464 MEMB     75       SAPS     HN2      HCL      0.330000       1.00800           0
      8465 MEMB     75       SAPS     HN3      HCL      0.330000       1.00800           0
      8466 MEMB     75       SAPS     C12      CTL1     0.210000       12.0110           0
      8467 MEMB     75       SAPS     H12A     HBL      0.100000       1.00800           0
      8468 MEMB     75       SAPS     C13      CCL      0.340000       12.0110           0
      8469 MEMB     75       SAPS     O13A     OCL     -0.670000       15.9994           0
      8470 MEMB     75       SAPS     O13B     OCL     -0.670000       15.9994           0
      8471 MEMB     75       SAPS     C11      CTL2    -0.800000E-01   12.0110           0
      8472 MEMB     75       SAPS     H11A     HAL2     0.900000E-01   1.00800           0
      8473 MEMB     75       SAPS     H11B     HAL2     0.900000E-01   1.00800           0
      8474 MEMB     75       SAPS     P        PL        1.50000       30.9740           0
      8475 MEMB     75       SAPS     O13      O2L     -0.780000       15.9994           0
      8476 MEMB     75       SAPS     O14      O2L     -0.780000       15.9994           0
      8477 MEMB     75       SAPS     O12      OSLP    -0.570000       15.9994           0
      8478 MEMB     75       SAPS     O11      OSLP    -0.570000       15.9994           0
      8479 MEMB     75       SAPS     C1       CTL2    -0.800000E-01   12.0110           0
      8480 MEMB     75       SAPS     HA       HAL2     0.900000E-01   1.00800           0
      8481 MEMB     75       SAPS     HB       HAL2     0.900000E-01   1.00800           0
      8482 MEMB     75       SAPS     C2       CTL1     0.170000       12.0110           0
      8483 MEMB     75       SAPS     HS       HAL1     0.900000E-01   1.00800           0
      8484 MEMB     75       SAPS     O21      OSL     -0.490000       15.9994           0
      8485 MEMB     75       SAPS     C21      CL       0.900000       12.0110           0
      8486 MEMB     75       SAPS     O22      OBL     -0.630000       15.9994           0
      8487 MEMB     75       SAPS     C22      CTL2    -0.220000       12.0110           0
      8488 MEMB     75       SAPS     H2R      HAL2     0.900000E-01   1.00800           0
      8489 MEMB     75       SAPS     H2S      HAL2     0.900000E-01   1.00800           0
      8490 MEMB     75       SAPS     C3       CTL2     0.800000E-01   12.0110           0
      8491 MEMB     75       SAPS     HX       HAL2     0.900000E-01   1.00800           0
      8492 MEMB     75       SAPS     HY       HAL2     0.900000E-01   1.00800           0
      8493 MEMB     75       SAPS     O31      OSL     -0.490000       15.9994           0
      8494 MEMB     75       SAPS     C31      CL       0.900000       12.0110           0
      8495 MEMB     75       SAPS     O32      OBL     -0.630000       15.9994           0
      8496 MEMB     75       SAPS     C32      CTL2    -0.220000       12.0110           0
      8497 MEMB     75       SAPS     H2X      HAL2     0.900000E-01   1.00800           0
      8498 MEMB     75       SAPS     H2Y      HAL2     0.900000E-01   1.00800           0
      8499 MEMB     75       SAPS     C23      CTL2    -0.180000       12.0110           0
      8500 MEMB     75       SAPS     H3R      HAL2     0.900000E-01   1.00800           0
      8501 MEMB     75       SAPS     H3S      HAL2     0.900000E-01   1.00800           0
      8502 MEMB     75       SAPS     C24      CTL2    -0.180000       12.0110           0
      8503 MEMB     75       SAPS     H4R      HAL2     0.900000E-01   1.00800           0
      8504 MEMB     75       SAPS     H4S      HAL2     0.900000E-01   1.00800           0
      8505 MEMB     75       SAPS     C25      CEL1    -0.150000       12.0110           0
      8506 MEMB     75       SAPS     H5R      HEL1     0.150000       1.00800           0
      8507 MEMB     75       SAPS     C26      CEL1    -0.150000       12.0110           0
      8508 MEMB     75       SAPS     H6R      HEL1     0.150000       1.00800           0
      8509 MEMB     75       SAPS     C27      CTL2    -0.180000       12.0110           0
      8510 MEMB     75       SAPS     H7R      HAL2     0.900000E-01   1.00800           0
      8511 MEMB     75       SAPS     H7S      HAL2     0.900000E-01   1.00800           0
      8512 MEMB     75       SAPS     C28      CEL1    -0.150000       12.0110           0
      8513 MEMB     75       SAPS     H8R      HEL1     0.150000       1.00800           0
      8514 MEMB     75       SAPS     C29      CEL1    -0.150000       12.0110           0
      8515 MEMB     75       SAPS     H9R      HEL1     0.150000       1.00800           0
      8516 MEMB     75       SAPS     C210     CTL2    -0.180000       12.0110           0
      8517 MEMB     75       SAPS     H10R     HAL2     0.900000E-01   1.00800           0
      8518 MEMB     75       SAPS     H10S     HAL2     0.900000E-01   1.00800           0
      8519 MEMB     75       SAPS     C211     CEL1    -0.150000       12.0110           0
      8520 MEMB     75       SAPS     H11R     HEL1     0.150000       1.00800           0
      8521 MEMB     75       SAPS     C212     CEL1    -0.150000       12.0110           0
      8522 MEMB     75       SAPS     H12R     HEL1     0.150000       1.00800           0
      8523 MEMB     75       SAPS     C213     CTL2    -0.180000       12.0110           0
      8524 MEMB     75       SAPS     H13R     HAL2     0.900000E-01   1.00800           0
      8525 MEMB     75       SAPS     H13S     HAL2     0.900000E-01   1.00800           0
      8526 MEMB     75       SAPS     C214     CEL1    -0.150000       12.0110           0
      8527 MEMB     75       SAPS     H14R     HEL1     0.150000       1.00800           0
      8528 MEMB     75       SAPS     C215     CEL1    -0.150000       12.0110           0
      8529 MEMB     75       SAPS     H15R     HEL1     0.150000       1.00800           0
      8530 MEMB     75       SAPS     C216     CTL2    -0.180000       12.0110           0
      8531 MEMB     75       SAPS     H16R     HAL2     0.900000E-01   1.00800           0
      8532 MEMB     75       SAPS     H16S     HAL2     0.900000E-01   1.00800           0
      8533 MEMB     75       SAPS     C217     CTL2    -0.180000       12.0110           0
      8534 MEMB     75       SAPS     H17R     HAL2     0.900000E-01   1.00800           0
      8535 MEMB     75       SAPS     H17S     HAL2     0.900000E-01   1.00800           0
      8536 MEMB     75       SAPS     C218     CTL2    -0.180000       12.0110           0
      8537 MEMB     75       SAPS     H18R     HAL2     0.900000E-01   1.00800           0
      8538 MEMB     75       SAPS     H18S     HAL2     0.900000E-01   1.00800           0
      8539 MEMB     75       SAPS     C219     CTL2    -0.180000       12.0110           0
      8540 MEMB     75       SAPS     H19R     HAL2     0.900000E-01   1.00800           0
      8541 MEMB     75       SAPS     H19S     HAL2     0.900000E-01   1.00800           0
      8542 MEMB     75       SAPS     C220     CTL3    -0.270000       12.0110           0
      8543 MEMB     75       SAPS     H20R     HAL3     0.900000E-01   1.00800           0
      8544 MEMB     75       SAPS     H20S     HAL3     0.900000E-01   1.00800           0
      8545 MEMB     75       SAPS     H20T     HAL3     0.900000E-01   1.00800           0
      8546 MEMB     75       SAPS     C33      CTL2    -0.180000       12.0110           0
      8547 MEMB     75       SAPS     H3X      HAL2     0.900000E-01   1.00800           0
      8548 MEMB     75       SAPS     H3Y      HAL2     0.900000E-01   1.00800           0
      8549 MEMB     75       SAPS     C34      CTL2    -0.180000       12.0110           0
      8550 MEMB     75       SAPS     H4X      HAL2     0.900000E-01   1.00800           0
      8551 MEMB     75       SAPS     H4Y      HAL2     0.900000E-01   1.00800           0
      8552 MEMB     75       SAPS     C35      CTL2    -0.180000       12.0110           0
      8553 MEMB     75       SAPS     H5X      HAL2     0.900000E-01   1.00800           0
      8554 MEMB     75       SAPS     H5Y      HAL2     0.900000E-01   1.00800           0
      8555 MEMB     75       SAPS     C36      CTL2    -0.180000       12.0110           0
      8556 MEMB     75       SAPS     H6X      HAL2     0.900000E-01   1.00800           0
      8557 MEMB     75       SAPS     H6Y      HAL2     0.900000E-01   1.00800           0
      8558 MEMB     75       SAPS     C37      CTL2    -0.180000       12.0110           0
      8559 MEMB     75       SAPS     H7X      HAL2     0.900000E-01   1.00800           0
      8560 MEMB     75       SAPS     H7Y      HAL2     0.900000E-01   1.00800           0
      8561 MEMB     75       SAPS     C38      CTL2    -0.180000       12.0110           0
      8562 MEMB     75       SAPS     H8X      HAL2     0.900000E-01   1.00800           0
      8563 MEMB     75       SAPS     H8Y      HAL2     0.900000E-01   1.00800           0
      8564 MEMB     75       SAPS     C39      CTL2    -0.180000       12.0110           0
      8565 MEMB     75       SAPS     H9X      HAL2     0.900000E-01   1.00800           0
      8566 MEMB     75       SAPS     H9Y      HAL2     0.900000E-01   1.00800           0
      8567 MEMB     75       SAPS     C310     CTL2    -0.180000       12.0110           0
      8568 MEMB     75       SAPS     H10X     HAL2     0.900000E-01   1.00800           0
      8569 MEMB     75       SAPS     H10Y     HAL2     0.900000E-01   1.00800           0
      8570 MEMB     75       SAPS     C311     CTL2    -0.180000       12.0110           0
      8571 MEMB     75       SAPS     H11X     HAL2     0.900000E-01   1.00800           0
      8572 MEMB     75       SAPS     H11Y     HAL2     0.900000E-01   1.00800           0
      8573 MEMB     75       SAPS     C312     CTL2    -0.180000       12.0110           0
      8574 MEMB     75       SAPS     H12X     HAL2     0.900000E-01   1.00800           0
      8575 MEMB     75       SAPS     H12Y     HAL2     0.900000E-01   1.00800           0
      8576 MEMB     75       SAPS     C313     CTL2    -0.180000       12.0110           0
      8577 MEMB     75       SAPS     H13X     HAL2     0.900000E-01   1.00800           0
      8578 MEMB     75       SAPS     H13Y     HAL2     0.900000E-01   1.00800           0
      8579 MEMB     75       SAPS     C314     CTL2    -0.180000       12.0110           0
      8580 MEMB     75       SAPS     H14X     HAL2     0.900000E-01   1.00800           0
      8581 MEMB     75       SAPS     H14Y     HAL2     0.900000E-01   1.00800           0
      8582 MEMB     75       SAPS     C315     CTL2    -0.180000       12.0110           0
      8583 MEMB     75       SAPS     H15X     HAL2     0.900000E-01   1.00800           0
      8584 MEMB     75       SAPS     H15Y     HAL2     0.900000E-01   1.00800           0
      8585 MEMB     75       SAPS     C316     CTL2    -0.180000       12.0110           0
      8586 MEMB     75       SAPS     H16X     HAL2     0.900000E-01   1.00800           0
      8587 MEMB     75       SAPS     H16Y     HAL2     0.900000E-01   1.00800           0
      8588 MEMB     75       SAPS     C317     CTL2    -0.180000       12.0110           0
      8589 MEMB     75       SAPS     H17X     HAL2     0.900000E-01   1.00800           0
      8590 MEMB     75       SAPS     H17Y     HAL2     0.900000E-01   1.00800           0
      8591 MEMB     75       SAPS     C318     CTL3    -0.270000       12.0110           0
      8592 MEMB     75       SAPS     H18X     HAL3     0.900000E-01   1.00800           0
      8593 MEMB     75       SAPS     H18Y     HAL3     0.900000E-01   1.00800           0
      8594 MEMB     75       SAPS     H18Z     HAL3     0.900000E-01   1.00800           0
      8595 MEMB     76       CHL1     C3       CRL1     0.140000       12.0110           0
      8596 MEMB     76       CHL1     H3       HGA1     0.900000E-01   1.00800           0
      8597 MEMB     76       CHL1     O3       OHL     -0.660000       15.9994           0
      8598 MEMB     76       CHL1     H3'      HOL      0.430000       1.00800           0
      8599 MEMB     76       CHL1     C4       CRL2    -0.180000       12.0110           0
      8600 MEMB     76       CHL1     H4A      HGA2     0.900000E-01   1.00800           0
      8601 MEMB     76       CHL1     H4B      HGA2     0.900000E-01   1.00800           0
      8602 MEMB     76       CHL1     C5       CEL1      0.00000       12.0110           0
      8603 MEMB     76       CHL1     C6       CEL1    -0.150000       12.0110           0
      8604 MEMB     76       CHL1     H6       HEL1     0.150000       1.00800           0
      8605 MEMB     76       CHL1     C7       CRL2    -0.180000       12.0110           0
      8606 MEMB     76       CHL1     H7A      HGA2     0.900000E-01   1.00800           0
      8607 MEMB     76       CHL1     H7B      HGA2     0.900000E-01   1.00800           0
      8608 MEMB     76       CHL1     C8       CRL1    -0.900000E-01   12.0110           0
      8609 MEMB     76       CHL1     H8       HGA1     0.900000E-01   1.00800           0
      8610 MEMB     76       CHL1     C14      CRL1    -0.900000E-01   12.0110           0
      8611 MEMB     76       CHL1     H14      HGA1     0.900000E-01   1.00800           0
      8612 MEMB     76       CHL1     C15      CRL2    -0.180000       12.0110           0
      8613 MEMB     76       CHL1     H15A     HGA2     0.900000E-01   1.00800           0
      8614 MEMB     76       CHL1     H15B     HGA2     0.900000E-01   1.00800           0
      8615 MEMB     76       CHL1     C16      CRL2    -0.180000       12.0110           0
      8616 MEMB     76       CHL1     H16A     HGA2     0.900000E-01   1.00800           0
      8617 MEMB     76       CHL1     H16B     HGA2     0.900000E-01   1.00800           0
      8618 MEMB     76       CHL1     C17      CRL1    -0.900000E-01   12.0110           0
      8619 MEMB     76       CHL1     H17      HGA1     0.900000E-01   1.00800           0
      8620 MEMB     76       CHL1     C13      CRL1      0.00000       12.0110           0
      8621 MEMB     76       CHL1     C18      CTL3    -0.270000       12.0110           0
      8622 MEMB     76       CHL1     H18A     HAL3     0.900000E-01   1.00800           0
      8623 MEMB     76       CHL1     H18B     HAL3     0.900000E-01   1.00800           0
      8624 MEMB     76       CHL1     H18C     HAL3     0.900000E-01   1.00800           0
      8625 MEMB     76       CHL1     C12      CRL2    -0.180000       12.0110           0
      8626 MEMB     76       CHL1     H12A     HGA2     0.900000E-01   1.00800           0
      8627 MEMB     76       CHL1     H12B     HGA2     0.900000E-01   1.00800           0
      8628 MEMB     76       CHL1     C11      CRL2    -0.180000       12.0110           0
      8629 MEMB     76       CHL1     H11A     HGA2     0.900000E-01   1.00800           0
      8630 MEMB     76       CHL1     H11B     HGA2     0.900000E-01   1.00800           0
      8631 MEMB     76       CHL1     C9       CRL1    -0.900000E-01   12.0110           0
      8632 MEMB     76       CHL1     H9       HGA1     0.900000E-01   1.00800           0
      8633 MEMB     76       CHL1     C10      CRL1      0.00000       12.0110           0
      8634 MEMB     76       CHL1     C19      CTL3    -0.270000       12.0110           0
      8635 MEMB     76       CHL1     H19A     HAL3     0.900000E-01   1.00800           0
      8636 MEMB     76       CHL1     H19B     HAL3     0.900000E-01   1.00800           0
      8637 MEMB     76       CHL1     H19C     HAL3     0.900000E-01   1.00800           0
      8638 MEMB     76       CHL1     C1       CRL2    -0.180000       12.0110           0
      8639 MEMB     76       CHL1     H1A      HGA2     0.900000E-01   1.00800           0
      8640 MEMB     76       CHL1     H1B      HGA2     0.900000E-01   1.00800           0
      8641 MEMB     76       CHL1     C2       CRL2    -0.180000       12.0110           0
      8642 MEMB     76       CHL1     H2A      HGA2     0.900000E-01   1.00800           0
      8643 MEMB     76       CHL1     H2B      HGA2     0.900000E-01   1.00800           0
      8644 MEMB     76       CHL1     C20      CTL1    -0.900000E-01   12.0110           0
      8645 MEMB     76       CHL1     H20      HAL1     0.900000E-01   1.00800           0
      8646 MEMB     76       CHL1     C21      CTL3    -0.270000       12.0110           0
      8647 MEMB     76       CHL1     H21A     HAL3     0.900000E-01   1.00800           0
      8648 MEMB     76       CHL1     H21B     HAL3     0.900000E-01   1.00800           0
      8649 MEMB     76       CHL1     H21C     HAL3     0.900000E-01   1.00800           0
      8650 MEMB     76       CHL1     C22      CTL2    -0.180000       12.0110           0
      8651 MEMB     76       CHL1     H22A     HAL2     0.900000E-01   1.00800           0
      8652 MEMB     76       CHL1     H22B     HAL2     0.900000E-01   1.00800           0
      8653 MEMB     76       CHL1     C23      CTL2    -0.180000       12.0110           0
      8654 MEMB     76       CHL1     H23A     HAL2     0.900000E-01   1.00800           0
      8655 MEMB     76       CHL1     H23B     HAL2     0.900000E-01   1.00800           0
      8656 MEMB     76       CHL1     C24      CTL2    -0.180000       12.0110           0
      8657 MEMB     76       CHL1     H24A     HAL2     0.900000E-01   1.00800           0
      8658 MEMB     76       CHL1     H24B     HAL2     0.900000E-01   1.00800           0
      8659 MEMB     76       CHL1     C25      CTL1    -0.900000E-01   12.0110           0
      8660 MEMB     76       CHL1     H25      HAL1     0.900000E-01   1.00800           0
      8661 MEMB     76       CHL1     C26      CTL3    -0.270000       12.0110           0
      8662 MEMB     76       CHL1     H26A     HAL3     0.900000E-01   1.00800           0
      8663 MEMB     76       CHL1     H26B     HAL3     0.900000E-01   1.00800           0
      8664 MEMB     76       CHL1     H26C     HAL3     0.900000E-01   1.00800           0
      8665 MEMB     76       CHL1     C27      CTL3    -0.270000       12.0110           0
      8666 MEMB     76       CHL1     H27A     HAL3     0.900000E-01   1.00800           0
      8667 MEMB     76       CHL1     H27B     HAL3     0.900000E-01   1.00800           0
      8668 MEMB     76       CHL1     H27C     HAL3     0.900000E-01   1.00800           0
      8669 MEMB     77       SLPC     N        NTL     -0.600000       14.0070           0
      8670 MEMB     77       SLPC     C13      CTL5    -0.350000       12.0110           0
      8671 MEMB     77       SLPC     H13A     HL       0.250000       1.00800           0
      8672 MEMB     77       SLPC     H13B     HL       0.250000       1.00800           0
      8673 MEMB     77       SLPC     H13C     HL       0.250000       1.00800           0
      8674 MEMB     77       SLPC     C14      CTL5    -0.350000       12.0110           0
      8675 MEMB     77       SLPC     H14A     HL       0.250000       1.00800           0
      8676 MEMB     77       SLPC     H14B     HL       0.250000       1.00800           0
      8677 MEMB     77       SLPC     H14C     HL       0.250000       1.00800           0
      8678 MEMB     77       SLPC     C15      CTL5    -0.350000       12.0110           0
      8679 MEMB     77       SLPC     H15A     HL       0.250000       1.00800           0
      8680 MEMB     77       SLPC     H15B     HL       0.250000       1.00800           0
      8681 MEMB     77       SLPC     H15C     HL       0.250000       1.00800           0
      8682 MEMB     77       SLPC     C12      CTL2    -0.100000       12.0110           0
      8683 MEMB     77       SLPC     H12A     HL       0.250000       1.00800           0
      8684 MEMB     77       SLPC     H12B     HL       0.250000       1.00800           0
      8685 MEMB     77       SLPC     C11      CTL2    -0.800000E-01   12.0110           0
      8686 MEMB     77       SLPC     H11A     HAL2     0.900000E-01   1.00800           0
      8687 MEMB     77       SLPC     H11B     HAL2     0.900000E-01   1.00800           0
      8688 MEMB     77       SLPC     P        PL        1.50000       30.9740           0
      8689 MEMB     77       SLPC     O13      O2L     -0.780000       15.9994           0
      8690 MEMB     77       SLPC     O14      O2L     -0.780000       15.9994           0
      8691 MEMB     77       SLPC     O12      OSLP    -0.570000       15.9994           0
      8692 MEMB     77       SLPC     O11      OSLP    -0.570000       15.9994           0
      8693 MEMB     77       SLPC     C1       CTL2    -0.800000E-01   12.0110           0
      8694 MEMB     77       SLPC     HA       HAL2     0.900000E-01   1.00800           0
      8695 MEMB     77       SLPC     HB       HAL2     0.900000E-01   1.00800           0
      8696 MEMB     77       SLPC     C2       CTL1     0.170000       12.0110           0
      8697 MEMB     77       SLPC     HS       HAL1     0.900000E-01   1.00800           0
      8698 MEMB     77       SLPC     O21      OSL     -0.490000       15.9994           0
      8699 MEMB     77       SLPC     C21      CL       0.900000       12.0110           0
      8700 MEMB     77       SLPC     O22      OBL     -0.630000       15.9994           0
      8701 MEMB     77       SLPC     C22      CTL2    -0.220000       12.0110           0
      8702 MEMB     77       SLPC     H2R      HAL2     0.900000E-01   1.00800           0
      8703 MEMB     77       SLPC     H2S      HAL2     0.900000E-01   1.00800           0
      8704 MEMB     77       SLPC     C3       CTL2     0.800000E-01   12.0110           0
      8705 MEMB     77       SLPC     HX       HAL2     0.900000E-01   1.00800           0
      8706 MEMB     77       SLPC     HY       HAL2     0.900000E-01   1.00800           0
      8707 MEMB     77       SLPC     O31      OSL     -0.490000       15.9994           0
      8708 MEMB     77       SLPC     C31      CL       0.900000       12.0110           0
      8709 MEMB     77       SLPC     O32      OBL     -0.630000       15.9994           0
      8710 MEMB     77       SLPC     C32      CTL2    -0.220000       12.0110           0
      8711 MEMB     77       SLPC     H2X      HAL2     0.900000E-01   1.00800           0
      8712 MEMB     77       SLPC     H2Y      HAL2     0.900000E-01   1.00800           0
      8713 MEMB     77       SLPC     C23      CTL2    -0.180000       12.0110           0
      8714 MEMB     77       SLPC     H3R      HAL2     0.900000E-01   1.00800           0
      8715 MEMB     77       SLPC     H3S      HAL2     0.900000E-01   1.00800           0
      8716 MEMB     77       SLPC     C24      CTL2    -0.180000       12.0110           0
      8717 MEMB     77       SLPC     H4R      HAL2     0.900000E-01   1.00800           0
      8718 MEMB     77       SLPC     H4S      HAL2     0.900000E-01   1.00800           0
      8719 MEMB     77       SLPC     C25      CTL2    -0.180000       12.0110           0
      8720 MEMB     77       SLPC     H5R      HAL2     0.900000E-01   1.00800           0
      8721 MEMB     77       SLPC     H5S      HAL2     0.900000E-01   1.00800           0
      8722 MEMB     77       SLPC     C26      CTL2    -0.180000       12.0110           0
      8723 MEMB     77       SLPC     H6R      HAL2     0.900000E-01   1.00800           0
      8724 MEMB     77       SLPC     H6S      HAL2     0.900000E-01   1.00800           0
      8725 MEMB     77       SLPC     C27      CTL2    -0.180000       12.0110           0
      8726 MEMB     77       SLPC     H7R      HAL2     0.900000E-01   1.00800           0
      8727 MEMB     77       SLPC     H7S      HAL2     0.900000E-01   1.00800           0
      8728 MEMB     77       SLPC     C28      CTL2    -0.180000       12.0110           0
      8729 MEMB     77       SLPC     H8R      HAL2     0.900000E-01   1.00800           0
      8730 MEMB     77       SLPC     H8S      HAL2     0.900000E-01   1.00800           0
      8731 MEMB     77       SLPC     C29      CEL1    -0.150000       12.0110           0
      8732 MEMB     77       SLPC     H9R      HEL1     0.150000       1.00800           0
      8733 MEMB     77       SLPC     C210     CEL1    -0.150000       12.0110           0
      8734 MEMB     77       SLPC     H10R     HEL1     0.150000       1.00800           0
      8735 MEMB     77       SLPC     C211     CTL2    -0.180000       12.0110           0
      8736 MEMB     77       SLPC     H11R     HAL2     0.900000E-01   1.00800           0
      8737 MEMB     77       SLPC     H11S     HAL2     0.900000E-01   1.00800           0
      8738 MEMB     77       SLPC     C212     CEL1    -0.150000       12.0110           0
      8739 MEMB     77       SLPC     H12R     HEL1     0.150000       1.00800           0
      8740 MEMB     77       SLPC     C213     CEL1    -0.150000       12.0110           0
      8741 MEMB     77       SLPC     H13R     HEL1     0.150000       1.00800           0
      8742 MEMB     77       SLPC     C214     CTL2    -0.180000       12.0110           0
      8743 MEMB     77       SLPC     H14R     HAL2     0.900000E-01   1.00800           0
      8744 MEMB     77       SLPC     H14S     HAL2     0.900000E-01   1.00800           0
      8745 MEMB     77       SLPC     C215     CTL2    -0.180000       12.0110           0
      8746 MEMB     77       SLPC     H15R     HAL2     0.900000E-01   1.00800           0
      8747 MEMB     77       SLPC     H15S     HAL2     0.900000E-01   1.00800           0
      8748 MEMB     77       SLPC     C216     CTL2    -0.180000       12.0110           0
      8749 MEMB     77       SLPC     H16R     HAL2     0.900000E-01   1.00800           0
      8750 MEMB     77       SLPC     H16S     HAL2     0.900000E-01   1.00800           0
      8751 MEMB     77       SLPC     C217     CTL2    -0.180000       12.0110           0
      8752 MEMB     77       SLPC     H17R     HAL2     0.900000E-01   1.00800           0
      8753 MEMB     77       SLPC     H17S     HAL2     0.900000E-01   1.00800           0
      8754 MEMB     77       SLPC     C218     CTL3    -0.270000       12.0110           0
      8755 MEMB     77       SLPC     H18R     HAL3     0.900000E-01   1.00800           0
      8756 MEMB     77       SLPC     H18S     HAL3     0.900000E-01   1.00800           0
      8757 MEMB     77       SLPC     H18T     HAL3     0.900000E-01   1.00800           0
      8758 MEMB     77       SLPC     C33      CTL2    -0.180000       12.0110           0
      8759 MEMB     77       SLPC     H3X      HAL2     0.900000E-01   1.00800           0
      8760 MEMB     77       SLPC     H3Y      HAL2     0.900000E-01   1.00800           0
      8761 MEMB     77       SLPC     C34      CTL2    -0.180000       12.0110           0
      8762 MEMB     77       SLPC     H4X      HAL2     0.900000E-01   1.00800           0
      8763 MEMB     77       SLPC     H4Y      HAL2     0.900000E-01   1.00800           0
      8764 MEMB     77       SLPC     C35      CTL2    -0.180000       12.0110           0
      8765 MEMB     77       SLPC     H5X      HAL2     0.900000E-01   1.00800           0
      8766 MEMB     77       SLPC     H5Y      HAL2     0.900000E-01   1.00800           0
      8767 MEMB     77       SLPC     C36      CTL2    -0.180000       12.0110           0
      8768 MEMB     77       SLPC     H6X      HAL2     0.900000E-01   1.00800           0
      8769 MEMB     77       SLPC     H6Y      HAL2     0.900000E-01   1.00800           0
      8770 MEMB     77       SLPC     C37      CTL2    -0.180000       12.0110           0
      8771 MEMB     77       SLPC     H7X      HAL2     0.900000E-01   1.00800           0
      8772 MEMB     77       SLPC     H7Y      HAL2     0.900000E-01   1.00800           0
      8773 MEMB     77       SLPC     C38      CTL2    -0.180000       12.0110           0
      8774 MEMB     77       SLPC     H8X      HAL2     0.900000E-01   1.00800           0
      8775 MEMB     77       SLPC     H8Y      HAL2     0.900000E-01   1.00800           0
      8776 MEMB     77       SLPC     C39      CTL2    -0.180000       12.0110           0
      8777 MEMB     77       SLPC     H9X      HAL2     0.900000E-01   1.00800           0
      8778 MEMB     77       SLPC     H9Y      HAL2     0.900000E-01   1.00800           0
      8779 MEMB     77       SLPC     C310     CTL2    -0.180000       12.0110           0
      8780 MEMB     77       SLPC     H10X     HAL2     0.900000E-01   1.00800           0
      8781 MEMB     77       SLPC     H10Y     HAL2     0.900000E-01   1.00800           0
      8782 MEMB     77       SLPC     C311     CTL2    -0.180000       12.0110           0
      8783 MEMB     77       SLPC     H11X     HAL2     0.900000E-01   1.00800           0
      8784 MEMB     77       SLPC     H11Y     HAL2     0.900000E-01   1.00800           0
      8785 MEMB     77       SLPC     C312     CTL2    -0.180000       12.0110           0
      8786 MEMB     77       SLPC     H12X     HAL2     0.900000E-01   1.00800           0
      8787 MEMB     77       SLPC     H12Y     HAL2     0.900000E-01   1.00800           0
      8788 MEMB     77       SLPC     C313     CTL2    -0.180000       12.0110           0
      8789 MEMB     77       SLPC     H13X     HAL2     0.900000E-01   1.00800           0
      8790 MEMB     77       SLPC     H13Y     HAL2     0.900000E-01   1.00800           0
      8791 MEMB     77       SLPC     C314     CTL2    -0.180000       12.0110           0
      8792 MEMB     77       SLPC     H14X     HAL2     0.900000E-01   1.00800           0
      8793 MEMB     77       SLPC     H14Y     HAL2     0.900000E-01   1.00800           0
      8794 MEMB     77       SLPC     C315     CTL2    -0.180000       12.0110           0
      8795 MEMB     77       SLPC     H15X     HAL2     0.900000E-01   1.00800           0
      8796 MEMB     77       SLPC     H15Y     HAL2     0.900000E-01   1.00800           0
      8797 MEMB     77       SLPC     C316     CTL2    -0.180000       12.0110           0
      8798 MEMB     77       SLPC     H16X     HAL2     0.900000E-01   1.00800           0
      8799 MEMB     77       SLPC     H16Y     HAL2     0.900000E-01   1.00800           0
      8800 MEMB     77       SLPC     C317     CTL2    -0.180000       12.0110           0
      8801 MEMB     77       SLPC     H17X     HAL2     0.900000E-01   1.00800           0
      8802 MEMB     77       SLPC     H17Y     HAL2     0.900000E-01   1.00800           0
      8803 MEMB     77       SLPC     C318     CTL3    -0.270000       12.0110           0
      8804 MEMB     77       SLPC     H18X     HAL3     0.900000E-01   1.00800           0
      8805 MEMB     77       SLPC     H18Y     HAL3     0.900000E-01   1.00800           0
      8806 MEMB     77       SLPC     H18Z     HAL3     0.900000E-01   1.00800           0
      8807 MEMB     78       SAPI     C12      CC3161   0.140000       12.0110           0
      8808 MEMB     78       SAPI     H2       HCA1     0.900000E-01   1.00800           0
      8809 MEMB     78       SAPI     O2       OC311   -0.650000       15.9994           0
      8810 MEMB     78       SAPI     HO2      HCP1     0.420000       1.00800           0
      8811 MEMB     78       SAPI     C13      CC3161   0.140000       12.0110           0
      8812 MEMB     78       SAPI     H3       HCA1     0.900000E-01   1.00800           0
      8813 MEMB     78       SAPI     O3       OC311   -0.650000       15.9994           0
      8814 MEMB     78       SAPI     HO3      HCP1     0.420000       1.00800           0
      8815 MEMB     78       SAPI     C14      CC3161   0.140000       12.0110           0
      8816 MEMB     78       SAPI     H4       HCA1     0.900000E-01   1.00800           0
      8817 MEMB     78       SAPI     O4       OC311   -0.650000       15.9994           0
      8818 MEMB     78       SAPI     HO4      HCP1     0.420000       1.00800           0
      8819 MEMB     78       SAPI     C15      CC3161   0.140000       12.0110           0
      8820 MEMB     78       SAPI     H5       HCA1     0.900000E-01   1.00800           0
      8821 MEMB     78       SAPI     O5       OC311   -0.650000       15.9994           0
      8822 MEMB     78       SAPI     HO5      HCP1     0.420000       1.00800           0
      8823 MEMB     78       SAPI     C16      CC3161   0.140000       12.0110           0
      8824 MEMB     78       SAPI     H6       HCA1     0.900000E-01   1.00800           0
      8825 MEMB     78       SAPI     O6       OC311   -0.650000       15.9994           0
      8826 MEMB     78       SAPI     HO6      HCP1     0.420000       1.00800           0
      8827 MEMB     78       SAPI     C11      CC3161  -0.800000E-01   12.0110           0
      8828 MEMB     78       SAPI     H1       HCA1     0.900000E-01   1.00800           0
      8829 MEMB     78       SAPI     P        PL        1.59000       30.9740           0
      8830 MEMB     78       SAPI     O13      O2L     -0.780000       15.9994           0
      8831 MEMB     78       SAPI     O14      O2L     -0.780000       15.9994           0
      8832 MEMB     78       SAPI     O12      OC30P   -0.570000       15.9994           0
      8833 MEMB     78       SAPI     O11      OSLP    -0.570000       15.9994           0
      8834 MEMB     78       SAPI     C1       CTL2    -0.800000E-01   12.0110           0
      8835 MEMB     78       SAPI     HA       HAL2     0.900000E-01   1.00800           0
      8836 MEMB     78       SAPI     HB       HAL2     0.900000E-01   1.00800           0
      8837 MEMB     78       SAPI     C2       CTL1     0.170000       12.0110           0
      8838 MEMB     78       SAPI     HS       HAL1     0.900000E-01   1.00800           0
      8839 MEMB     78       SAPI     O21      OSL     -0.490000       15.9994           0
      8840 MEMB     78       SAPI     C21      CL       0.900000       12.0110           0
      8841 MEMB     78       SAPI     O22      OBL     -0.630000       15.9994           0
      8842 MEMB     78       SAPI     C22      CTL2    -0.220000       12.0110           0
      8843 MEMB     78       SAPI     H2R      HAL2     0.900000E-01   1.00800           0
      8844 MEMB     78       SAPI     H2S      HAL2     0.900000E-01   1.00800           0
      8845 MEMB     78       SAPI     C3       CTL2     0.800000E-01   12.0110           0
      8846 MEMB     78       SAPI     HX       HAL2     0.900000E-01   1.00800           0
      8847 MEMB     78       SAPI     HY       HAL2     0.900000E-01   1.00800           0
      8848 MEMB     78       SAPI     O31      OSL     -0.490000       15.9994           0
      8849 MEMB     78       SAPI     C31      CL       0.900000       12.0110           0
      8850 MEMB     78       SAPI     O32      OBL     -0.630000       15.9994           0
      8851 MEMB     78       SAPI     C32      CTL2    -0.220000       12.0110           0
      8852 MEMB     78       SAPI     H2X      HAL2     0.900000E-01   1.00800           0
      8853 MEMB     78       SAPI     H2Y      HAL2     0.900000E-01   1.00800           0
      8854 MEMB     78       SAPI     C23      CTL2    -0.180000       12.0110           0
      8855 MEMB     78       SAPI     H3R      HAL2     0.900000E-01   1.00800           0
      8856 MEMB     78       SAPI     H3S      HAL2     0.900000E-01   1.00800           0
      8857 MEMB     78       SAPI     C24      CTL2    -0.180000       12.0110           0
      8858 MEMB     78       SAPI     H4R      HAL2     0.900000E-01   1.00800           0
      8859 MEMB     78       SAPI     H4S      HAL2     0.900000E-01   1.00800           0
      8860 MEMB     78       SAPI     C25      CEL1    -0.150000       12.0110           0
      8861 MEMB     78       SAPI     H5R      HEL1     0.150000       1.00800           0
      8862 MEMB     78       SAPI     C26      CEL1    -0.150000       12.0110           0
      8863 MEMB     78       SAPI     H6R      HEL1     0.150000       1.00800           0
      8864 MEMB     78       SAPI     C27      CTL2    -0.180000       12.0110           0
      8865 MEMB     78       SAPI     H7R      HAL2     0.900000E-01   1.00800           0
      8866 MEMB     78       SAPI     H7S      HAL2     0.900000E-01   1.00800           0
      8867 MEMB     78       SAPI     C28      CEL1    -0.150000       12.0110           0
      8868 MEMB     78       SAPI     H8R      HEL1     0.150000       1.00800           0
      8869 MEMB     78       SAPI     C29      CEL1    -0.150000       12.0110           0
      8870 MEMB     78       SAPI     H9R      HEL1     0.150000       1.00800           0
      8871 MEMB     78       SAPI     C210     CTL2    -0.180000       12.0110           0
      8872 MEMB     78       SAPI     H10R     HAL2     0.900000E-01   1.00800           0
      8873 MEMB     78       SAPI     H10S     HAL2     0.900000E-01   1.00800           0
      8874 MEMB     78       SAPI     C211     CEL1    -0.150000       12.0110           0
      8875 MEMB     78       SAPI     H11R     HEL1     0.150000       1.00800           0
      8876 MEMB     78       SAPI     C212     CEL1    -0.150000       12.0110           0
      8877 MEMB     78       SAPI     H12R     HEL1     0.150000       1.00800           0
      8878 MEMB     78       SAPI     C213     CTL2    -0.180000       12.0110           0
      8879 MEMB     78       SAPI     H13R     HAL2     0.900000E-01   1.00800           0
      8880 MEMB     78       SAPI     H13S     HAL2     0.900000E-01   1.00800           0
      8881 MEMB     78       SAPI     C214     CEL1    -0.150000       12.0110           0
      8882 MEMB     78       SAPI     H14R     HEL1     0.150000       1.00800           0
      8883 MEMB     78       SAPI     C215     CEL1    -0.150000       12.0110           0
      8884 MEMB     78       SAPI     H15R     HEL1     0.150000       1.00800           0
      8885 MEMB     78       SAPI     C216     CTL2    -0.180000       12.0110           0
      8886 MEMB     78       SAPI     H16R     HAL2     0.900000E-01   1.00800           0
      8887 MEMB     78       SAPI     H16S     HAL2     0.900000E-01   1.00800           0
      8888 MEMB     78       SAPI     C217     CTL2    -0.180000       12.0110           0
      8889 MEMB     78       SAPI     H17R     HAL2     0.900000E-01   1.00800           0
      8890 MEMB     78       SAPI     H17S     HAL2     0.900000E-01   1.00800           0
      8891 MEMB     78       SAPI     C218     CTL2    -0.180000       12.0110           0
      8892 MEMB     78       SAPI     H18R     HAL2     0.900000E-01   1.00800           0
      8893 MEMB     78       SAPI     H18S     HAL2     0.900000E-01   1.00800           0
      8894 MEMB     78       SAPI     C219     CTL2    -0.180000       12.0110           0
      8895 MEMB     78       SAPI     H19R     HAL2     0.900000E-01   1.00800           0
      8896 MEMB     78       SAPI     H19S     HAL2     0.900000E-01   1.00800           0
      8897 MEMB     78       SAPI     C220     CTL3    -0.270000       12.0110           0
      8898 MEMB     78       SAPI     H20R     HAL3     0.900000E-01   1.00800           0
      8899 MEMB     78       SAPI     H20S     HAL3     0.900000E-01   1.00800           0
      8900 MEMB     78       SAPI     H20T     HAL3     0.900000E-01   1.00800           0
      8901 MEMB     78       SAPI     C33      CTL2    -0.180000       12.0110           0
      8902 MEMB     78       SAPI     H3X      HAL2     0.900000E-01   1.00800           0
      8903 MEMB     78       SAPI     H3Y      HAL2     0.900000E-01   1.00800           0
      8904 MEMB     78       SAPI     C34      CTL2    -0.180000       12.0110           0
      8905 MEMB     78       SAPI     H4X      HAL2     0.900000E-01   1.00800           0
      8906 MEMB     78       SAPI     H4Y      HAL2     0.900000E-01   1.00800           0
      8907 MEMB     78       SAPI     C35      CTL2    -0.180000       12.0110           0
      8908 MEMB     78       SAPI     H5X      HAL2     0.900000E-01   1.00800           0
      8909 MEMB     78       SAPI     H5Y      HAL2     0.900000E-01   1.00800           0
      8910 MEMB     78       SAPI     C36      CTL2    -0.180000       12.0110           0
      8911 MEMB     78       SAPI     H6X      HAL2     0.900000E-01   1.00800           0
      8912 MEMB     78       SAPI     H6Y      HAL2     0.900000E-01   1.00800           0
      8913 MEMB     78       SAPI     C37      CTL2    -0.180000       12.0110           0
      8914 MEMB     78       SAPI     H7X      HAL2     0.900000E-01   1.00800           0
      8915 MEMB     78       SAPI     H7Y      HAL2     0.900000E-01   1.00800           0
      8916 MEMB     78       SAPI     C38      CTL2    -0.180000       12.0110           0
      8917 MEMB     78       SAPI     H8X      HAL2     0.900000E-01   1.00800           0
      8918 MEMB     78       SAPI     H8Y      HAL2     0.900000E-01   1.00800           0
      8919 MEMB     78       SAPI     C39      CTL2    -0.180000       12.0110           0
      8920 MEMB     78       SAPI     H9X      HAL2     0.900000E-01   1.00800           0
      8921 MEMB     78       SAPI     H9Y      HAL2     0.900000E-01   1.00800           0
      8922 MEMB     78       SAPI     C310     CTL2    -0.180000       12.0110           0
      8923 MEMB     78       SAPI     H10X     HAL2     0.900000E-01   1.00800           0
      8924 MEMB     78       SAPI     H10Y     HAL2     0.900000E-01   1.00800           0
      8925 MEMB     78       SAPI     C311     CTL2    -0.180000       12.0110           0
      8926 MEMB     78       SAPI     H11X     HAL2     0.900000E-01   1.00800           0
      8927 MEMB     78       SAPI     H11Y     HAL2     0.900000E-01   1.00800           0
      8928 MEMB     78       SAPI     C312     CTL2    -0.180000       12.0110           0
      8929 MEMB     78       SAPI     H12X     HAL2     0.900000E-01   1.00800           0
      8930 MEMB     78       SAPI     H12Y     HAL2     0.900000E-01   1.00800           0
      8931 MEMB     78       SAPI     C313     CTL2    -0.180000       12.0110           0
      8932 MEMB     78       SAPI     H13X     HAL2     0.900000E-01   1.00800           0
      8933 MEMB     78       SAPI     H13Y     HAL2     0.900000E-01   1.00800           0
      8934 MEMB     78       SAPI     C314     CTL2    -0.180000       12.0110           0
      8935 MEMB     78       SAPI     H14X     HAL2     0.900000E-01   1.00800           0
      8936 MEMB     78       SAPI     H14Y     HAL2     0.900000E-01   1.00800           0
      8937 MEMB     78       SAPI     C315     CTL2    -0.180000       12.0110           0
      8938 MEMB     78       SAPI     H15X     HAL2     0.900000E-01   1.00800           0
      8939 MEMB     78       SAPI     H15Y     HAL2     0.900000E-01   1.00800           0
      8940 MEMB     78       SAPI     C316     CTL2    -0.180000       12.0110           0
      8941 MEMB     78       SAPI     H16X     HAL2     0.900000E-01   1.00800           0
      8942 MEMB     78       SAPI     H16Y     HAL2     0.900000E-01   1.00800           0
      8943 MEMB     78       SAPI     C317     CTL2    -0.180000       12.0110           0
      8944 MEMB     78       SAPI     H17X     HAL2     0.900000E-01   1.00800           0
      8945 MEMB     78       SAPI     H17Y     HAL2     0.900000E-01   1.00800           0
      8946 MEMB     78       SAPI     C318     CTL3    -0.270000       12.0110           0
      8947 MEMB     78       SAPI     H18X     HAL3     0.900000E-01   1.00800           0
      8948 MEMB     78       SAPI     H18Y     HAL3     0.900000E-01   1.00800           0
      8949 MEMB     78       SAPI     H18Z     HAL3     0.900000E-01   1.00800           0
      8950 MEMB     79       OSM      N        NTL     -0.600000       14.0070           0
      8951 MEMB     79       OSM      C15      CTL5    -0.350000       12.0110           0
      8952 MEMB     79       OSM      H15A     HL       0.250000       1.00800           0
      8953 MEMB     79       OSM      H15B     HL       0.250000       1.00800           0
      8954 MEMB     79       OSM      H15C     HL       0.250000       1.00800           0
      8955 MEMB     79       OSM      C14      CTL5    -0.350000       12.0110           0
      8956 MEMB     79       OSM      H14A     HL       0.250000       1.00800           0
      8957 MEMB     79       OSM      H14B     HL       0.250000       1.00800           0
      8958 MEMB     79       OSM      H14C     HL       0.250000       1.00800           0
      8959 MEMB     79       OSM      C13      CTL5    -0.350000       12.0110           0
      8960 MEMB     79       OSM      H13A     HL       0.250000       1.00800           0
      8961 MEMB     79       OSM      H13B     HL       0.250000       1.00800           0
      8962 MEMB     79       OSM      H13C     HL       0.250000       1.00800           0
      8963 MEMB     79       OSM      C12      CTL2    -0.100000       12.0110           0
      8964 MEMB     79       OSM      H12A     HL       0.250000       1.00800           0
      8965 MEMB     79       OSM      H12B     HL       0.250000       1.00800           0
      8966 MEMB     79       OSM      C11      CTL2    -0.800000E-01   12.0110           0
      8967 MEMB     79       OSM      H11A     HAL2     0.900000E-01   1.00800           0
      8968 MEMB     79       OSM      H11B     HAL2     0.900000E-01   1.00800           0
      8969 MEMB     79       OSM      P        PL        1.50000       30.9740           0
      8970 MEMB     79       OSM      O13      O2L     -0.780000       15.9994           0
      8971 MEMB     79       OSM      O14      O2L     -0.780000       15.9994           0
      8972 MEMB     79       OSM      O11      OSLP    -0.570000       15.9994           0
      8973 MEMB     79       OSM      O12      OSLP    -0.570000       15.9994           0
      8974 MEMB     79       OSM      C1S      CTL2    -0.800000E-01   12.0110           0
      8975 MEMB     79       OSM      H1S      HAL2     0.900000E-01   1.00800           0
      8976 MEMB     79       OSM      H1T      HAL2     0.900000E-01   1.00800           0
      8977 MEMB     79       OSM      NF       NHL     -0.700000       14.0070           0
      8978 MEMB     79       OSM      HNF      H        0.350000       1.00800           0
      8979 MEMB     79       OSM      C2S      CTL1     0.300000       12.0110           0
      8980 MEMB     79       OSM      H2S      HAL1     0.500000E-01   1.00800           0
      8981 MEMB     79       OSM      C3S      CTO1     0.500000       12.0110           0
      8982 MEMB     79       OSM      H3S      HAL1    -0.110000       1.00800           0
      8983 MEMB     79       OSM      O3       OHL     -0.690000       15.9994           0
      8984 MEMB     79       OSM      HO3      HOL      0.300000       1.00800           0
      8985 MEMB     79       OSM      C4S      CEL3    -0.150000       12.0110           0
      8986 MEMB     79       OSM      H4S      HEL1     0.150000       1.00800           0
      8987 MEMB     79       OSM      C5S      CEL3    -0.150000       12.0110           0
      8988 MEMB     79       OSM      H5S      HEL1     0.150000       1.00800           0
      8989 MEMB     79       OSM      C6S      CTL2    -0.180000       12.0110           0
      8990 MEMB     79       OSM      H6S      HAL2     0.900000E-01   1.00800           0
      8991 MEMB     79       OSM      H6T      HAL2     0.900000E-01   1.00800           0
      8992 MEMB     79       OSM      C7S      CTL2    -0.180000       12.0110           0
      8993 MEMB     79       OSM      H7S      HAL2     0.900000E-01   1.00800           0
      8994 MEMB     79       OSM      H7T      HAL2     0.900000E-01   1.00800           0
      8995 MEMB     79       OSM      C8S      CTL2    -0.180000       12.0110           0
      8996 MEMB     79       OSM      H8S      HAL2     0.900000E-01   1.00800           0
      8997 MEMB     79       OSM      H8T      HAL2     0.900000E-01   1.00800           0
      8998 MEMB     79       OSM      C9S      CTL2    -0.180000       12.0110           0
      8999 MEMB     79       OSM      H9S      HAL2     0.900000E-01   1.00800           0
      9000 MEMB     79       OSM      H9T      HAL2     0.900000E-01   1.00800           0
      9001 MEMB     79       OSM      C10S     CTL2    -0.180000       12.0110           0
      9002 MEMB     79       OSM      H10S     HAL2     0.900000E-01   1.00800           0
      9003 MEMB     79       OSM      H10T     HAL2     0.900000E-01   1.00800           0
      9004 MEMB     79       OSM      C11S     CTL2    -0.180000       12.0110           0
      9005 MEMB     79       OSM      H11S     HAL2     0.900000E-01   1.00800           0
      9006 MEMB     79       OSM      H11T     HAL2     0.900000E-01   1.00800           0
      9007 MEMB     79       OSM      C12S     CTL2    -0.180000       12.0110           0
      9008 MEMB     79       OSM      H12S     HAL2     0.900000E-01   1.00800           0
      9009 MEMB     79       OSM      H12T     HAL2     0.900000E-01   1.00800           0
      9010 MEMB     79       OSM      C13S     CTL2    -0.180000       12.0110           0
      9011 MEMB     79       OSM      H13S     HAL2     0.900000E-01   1.00800           0
      9012 MEMB     79       OSM      H13T     HAL2     0.900000E-01   1.00800           0
      9013 MEMB     79       OSM      C14S     CTL2    -0.180000       12.0110           0
      9014 MEMB     79       OSM      H14S     HAL2     0.900000E-01   1.00800           0
      9015 MEMB     79       OSM      H14T     HAL2     0.900000E-01   1.00800           0
      9016 MEMB     79       OSM      C15S     CTL2    -0.180000       12.0110           0
      9017 MEMB     79       OSM      H15S     HAL2     0.900000E-01   1.00800           0
      9018 MEMB     79       OSM      H15T     HAL2     0.900000E-01   1.00800           0
      9019 MEMB     79       OSM      C16S     CTL2    -0.180000       12.0110           0
      9020 MEMB     79       OSM      H16S     HAL2     0.900000E-01   1.00800           0
      9021 MEMB     79       OSM      H16T     HAL2     0.900000E-01   1.00800           0
      9022 MEMB     79       OSM      C17S     CTL2    -0.180000       12.0110           0
      9023 MEMB     79       OSM      H17S     HAL2     0.900000E-01   1.00800           0
      9024 MEMB     79       OSM      H17T     HAL2     0.900000E-01   1.00800           0
      9025 MEMB     79       OSM      C18S     CTL3    -0.270000       12.0110           0
      9026 MEMB     79       OSM      H18S     HAL3     0.900000E-01   1.00800           0
      9027 MEMB     79       OSM      H18T     HAL3     0.900000E-01   1.00800           0
      9028 MEMB     79       OSM      H18U     HAL3     0.900000E-01   1.00800           0
      9029 MEMB     79       OSM      C1F      C        0.550000       12.0110           0
      9030 MEMB     79       OSM      OF       O       -0.600000       15.9994           0
      9031 MEMB     79       OSM      C2F      CTL2    -0.700000E-01   12.0110           0
      9032 MEMB     79       OSM      H2F      HAL2     0.600000E-01   1.00800           0
      9033 MEMB     79       OSM      H2G      HAL2     0.600000E-01   1.00800           0
      9034 MEMB     79       OSM      C3F      CTL2    -0.180000       12.0110           0
      9035 MEMB     79       OSM      H3F      HAL2     0.900000E-01   1.00800           0
      9036 MEMB     79       OSM      H3G      HAL2     0.900000E-01   1.00800           0
      9037 MEMB     79       OSM      C4F      CTL2    -0.180000       12.0110           0
      9038 MEMB     79       OSM      H4F      HAL2     0.900000E-01   1.00800           0
      9039 MEMB     79       OSM      H4G      HAL2     0.900000E-01   1.00800           0
      9040 MEMB     79       OSM      C5F      CTL2    -0.180000       12.0110           0
      9041 MEMB     79       OSM      H5F      HAL2     0.900000E-01   1.00800           0
      9042 MEMB     79       OSM      H5G      HAL2     0.900000E-01   1.00800           0
      9043 MEMB     79       OSM      C6F      CTL2    -0.180000       12.0110           0
      9044 MEMB     79       OSM      H6F      HAL2     0.900000E-01   1.00800           0
      9045 MEMB     79       OSM      H6G      HAL2     0.900000E-01   1.00800           0
      9046 MEMB     79       OSM      C7F      CTL2    -0.180000       12.0110           0
      9047 MEMB     79       OSM      H7F      HAL2     0.900000E-01   1.00800           0
      9048 MEMB     79       OSM      H7G      HAL2     0.900000E-01   1.00800           0
      9049 MEMB     79       OSM      C8F      CTL2    -0.180000       12.0110           0
      9050 MEMB     79       OSM      H8F      HAL2     0.900000E-01   1.00800           0
      9051 MEMB     79       OSM      H8G      HAL2     0.900000E-01   1.00800           0
      9052 MEMB     79       OSM      C9F      CEL1    -0.150000       12.0110           0
      9053 MEMB     79       OSM      H9F      HEL1     0.150000       1.00800           0
      9054 MEMB     79       OSM      C10F     CEL1    -0.150000       12.0110           0
      9055 MEMB     79       OSM      H10F     HEL1     0.150000       1.00800           0
      9056 MEMB     79       OSM      C11F     CTL2    -0.180000       12.0110           0
      9057 MEMB     79       OSM      H11F     HAL2     0.900000E-01   1.00800           0
      9058 MEMB     79       OSM      H11G     HAL2     0.900000E-01   1.00800           0
      9059 MEMB     79       OSM      C12F     CTL2    -0.180000       12.0110           0
      9060 MEMB     79       OSM      H12F     HAL2     0.900000E-01   1.00800           0
      9061 MEMB     79       OSM      H12G     HAL2     0.900000E-01   1.00800           0
      9062 MEMB     79       OSM      C13F     CTL2    -0.180000       12.0110           0
      9063 MEMB     79       OSM      H13F     HAL2     0.900000E-01   1.00800           0
      9064 MEMB     79       OSM      H13G     HAL2     0.900000E-01   1.00800           0
      9065 MEMB     79       OSM      C14F     CTL2    -0.180000       12.0110           0
      9066 MEMB     79       OSM      H14F     HAL2     0.900000E-01   1.00800           0
      9067 MEMB     79       OSM      H14G     HAL2     0.900000E-01   1.00800           0
      9068 MEMB     79       OSM      C15F     CTL2    -0.180000       12.0110           0
      9069 MEMB     79       OSM      H15F     HAL2     0.900000E-01   1.00800           0
      9070 MEMB     79       OSM      H15G     HAL2     0.900000E-01   1.00800           0
      9071 MEMB     79       OSM      C16F     CTL2    -0.180000       12.0110           0
      9072 MEMB     79       OSM      H16F     HAL2     0.900000E-01   1.00800           0
      9073 MEMB     79       OSM      H16G     HAL2     0.900000E-01   1.00800           0
      9074 MEMB     79       OSM      C17F     CTL2    -0.180000       12.0110           0
      9075 MEMB     79       OSM      H17F     HAL2     0.900000E-01   1.00800           0
      9076 MEMB     79       OSM      H17G     HAL2     0.900000E-01   1.00800           0
      9077 MEMB     79       OSM      C18F     CTL3    -0.270000       12.0110           0
      9078 MEMB     79       OSM      H18F     HAL3     0.900000E-01   1.00800           0
      9079 MEMB     79       OSM      H18G     HAL3     0.900000E-01   1.00800           0
      9080 MEMB     79       OSM      H18H     HAL3     0.900000E-01   1.00800           0
      9081 MEMB     80       SAPE     N        NH3L    -0.300000       14.0070           0
      9082 MEMB     80       SAPE     HN1      HCL      0.330000       1.00800           0
      9083 MEMB     80       SAPE     HN2      HCL      0.330000       1.00800           0
      9084 MEMB     80       SAPE     HN3      HCL      0.330000       1.00800           0
      9085 MEMB     80       SAPE     C12      CTL2     0.130000       12.0110           0
      9086 MEMB     80       SAPE     H12A     HAL2     0.900000E-01   1.00800           0
      9087 MEMB     80       SAPE     H12B     HAL2     0.900000E-01   1.00800           0
      9088 MEMB     80       SAPE     C11      CTL2    -0.800000E-01   12.0110           0
      9089 MEMB     80       SAPE     H11A     HAL2     0.900000E-01   1.00800           0
      9090 MEMB     80       SAPE     H11B     HAL2     0.900000E-01   1.00800           0
      9091 MEMB     80       SAPE     P        PL        1.50000       30.9740           0
      9092 MEMB     80       SAPE     O13      O2L     -0.780000       15.9994           0
      9093 MEMB     80       SAPE     O14      O2L     -0.780000       15.9994           0
      9094 MEMB     80       SAPE     O12      OSLP    -0.570000       15.9994           0
      9095 MEMB     80       SAPE     O11      OSLP    -0.570000       15.9994           0
      9096 MEMB     80       SAPE     C1       CTL2    -0.800000E-01   12.0110           0
      9097 MEMB     80       SAPE     HA       HAL2     0.900000E-01   1.00800           0
      9098 MEMB     80       SAPE     HB       HAL2     0.900000E-01   1.00800           0
      9099 MEMB     80       SAPE     C2       CTL1     0.170000       12.0110           0
      9100 MEMB     80       SAPE     HS       HAL1     0.900000E-01   1.00800           0
      9101 MEMB     80       SAPE     O21      OSL     -0.490000       15.9994           0
      9102 MEMB     80       SAPE     C21      CL       0.900000       12.0110           0
      9103 MEMB     80       SAPE     O22      OBL     -0.630000       15.9994           0
      9104 MEMB     80       SAPE     C22      CTL2    -0.220000       12.0110           0
      9105 MEMB     80       SAPE     H2R      HAL2     0.900000E-01   1.00800           0
      9106 MEMB     80       SAPE     H2S      HAL2     0.900000E-01   1.00800           0
      9107 MEMB     80       SAPE     C3       CTL2     0.800000E-01   12.0110           0
      9108 MEMB     80       SAPE     HX       HAL2     0.900000E-01   1.00800           0
      9109 MEMB     80       SAPE     HY       HAL2     0.900000E-01   1.00800           0
      9110 MEMB     80       SAPE     O31      OSL     -0.490000       15.9994           0
      9111 MEMB     80       SAPE     C31      CL       0.900000       12.0110           0
      9112 MEMB     80       SAPE     O32      OBL     -0.630000       15.9994           0
      9113 MEMB     80       SAPE     C32      CTL2    -0.220000       12.0110           0
      9114 MEMB     80       SAPE     H2X      HAL2     0.900000E-01   1.00800           0
      9115 MEMB     80       SAPE     H2Y      HAL2     0.900000E-01   1.00800           0
      9116 MEMB     80       SAPE     C23      CTL2    -0.180000       12.0110           0
      9117 MEMB     80       SAPE     H3R      HAL2     0.900000E-01   1.00800           0
      9118 MEMB     80       SAPE     H3S      HAL2     0.900000E-01   1.00800           0
      9119 MEMB     80       SAPE     C24      CTL2    -0.180000       12.0110           0
      9120 MEMB     80       SAPE     H4R      HAL2     0.900000E-01   1.00800           0
      9121 MEMB     80       SAPE     H4S      HAL2     0.900000E-01   1.00800           0
      9122 MEMB     80       SAPE     C25      CEL1    -0.150000       12.0110           0
      9123 MEMB     80       SAPE     H5R      HEL1     0.150000       1.00800           0
      9124 MEMB     80       SAPE     C26      CEL1    -0.150000       12.0110           0
      9125 MEMB     80       SAPE     H6R      HEL1     0.150000       1.00800           0
      9126 MEMB     80       SAPE     C27      CTL2    -0.180000       12.0110           0
      9127 MEMB     80       SAPE     H7R      HAL2     0.900000E-01   1.00800           0
      9128 MEMB     80       SAPE     H7S      HAL2     0.900000E-01   1.00800           0
      9129 MEMB     80       SAPE     C28      CEL1    -0.150000       12.0110           0
      9130 MEMB     80       SAPE     H8R      HEL1     0.150000       1.00800           0
      9131 MEMB     80       SAPE     C29      CEL1    -0.150000       12.0110           0
      9132 MEMB     80       SAPE     H9R      HEL1     0.150000       1.00800           0
      9133 MEMB     80       SAPE     C210     CTL2    -0.180000       12.0110           0
      9134 MEMB     80       SAPE     H10R     HAL2     0.900000E-01   1.00800           0
      9135 MEMB     80       SAPE     H10S     HAL2     0.900000E-01   1.00800           0
      9136 MEMB     80       SAPE     C211     CEL1    -0.150000       12.0110           0
      9137 MEMB     80       SAPE     H11R     HEL1     0.150000       1.00800           0
      9138 MEMB     80       SAPE     C212     CEL1    -0.150000       12.0110           0
      9139 MEMB     80       SAPE     H12R     HEL1     0.150000       1.00800           0
      9140 MEMB     80       SAPE     C213     CTL2    -0.180000       12.0110           0
      9141 MEMB     80       SAPE     H13R     HAL2     0.900000E-01   1.00800           0
      9142 MEMB     80       SAPE     H13S     HAL2     0.900000E-01   1.00800           0
      9143 MEMB     80       SAPE     C214     CEL1    -0.150000       12.0110           0
      9144 MEMB     80       SAPE     H14R     HEL1     0.150000       1.00800           0
      9145 MEMB     80       SAPE     C215     CEL1    -0.150000       12.0110           0
      9146 MEMB     80       SAPE     H15R     HEL1     0.150000       1.00800           0
      9147 MEMB     80       SAPE     C216     CTL2    -0.180000       12.0110           0
      9148 MEMB     80       SAPE     H16R     HAL2     0.900000E-01   1.00800           0
      9149 MEMB     80       SAPE     H16S     HAL2     0.900000E-01   1.00800           0
      9150 MEMB     80       SAPE     C217     CTL2    -0.180000       12.0110           0
      9151 MEMB     80       SAPE     H17R     HAL2     0.900000E-01   1.00800           0
      9152 MEMB     80       SAPE     H17S     HAL2     0.900000E-01   1.00800           0
      9153 MEMB     80       SAPE     C218     CTL2    -0.180000       12.0110           0
      9154 MEMB     80       SAPE     H18R     HAL2     0.900000E-01   1.00800           0
      9155 MEMB     80       SAPE     H18S     HAL2     0.900000E-01   1.00800           0
      9156 MEMB     80       SAPE     C219     CTL2    -0.180000       12.0110           0
      9157 MEMB     80       SAPE     H19R     HAL2     0.900000E-01   1.00800           0
      9158 MEMB     80       SAPE     H19S     HAL2     0.900000E-01   1.00800           0
      9159 MEMB     80       SAPE     C220     CTL3    -0.270000       12.0110           0
      9160 MEMB     80       SAPE     H20R     HAL3     0.900000E-01   1.00800           0
      9161 MEMB     80       SAPE     H20S     HAL3     0.900000E-01   1.00800           0
      9162 MEMB     80       SAPE     H20T     HAL3     0.900000E-01   1.00800           0
      9163 MEMB     80       SAPE     C33      CTL2    -0.180000       12.0110           0
      9164 MEMB     80       SAPE     H3X      HAL2     0.900000E-01   1.00800           0
      9165 MEMB     80       SAPE     H3Y      HAL2     0.900000E-01   1.00800           0
      9166 MEMB     80       SAPE     C34      CTL2    -0.180000       12.0110           0
      9167 MEMB     80       SAPE     H4X      HAL2     0.900000E-01   1.00800           0
      9168 MEMB     80       SAPE     H4Y      HAL2     0.900000E-01   1.00800           0
      9169 MEMB     80       SAPE     C35      CTL2    -0.180000       12.0110           0
      9170 MEMB     80       SAPE     H5X      HAL2     0.900000E-01   1.00800           0
      9171 MEMB     80       SAPE     H5Y      HAL2     0.900000E-01   1.00800           0
      9172 MEMB     80       SAPE     C36      CTL2    -0.180000       12.0110           0
      9173 MEMB     80       SAPE     H6X      HAL2     0.900000E-01   1.00800           0
      9174 MEMB     80       SAPE     H6Y      HAL2     0.900000E-01   1.00800           0
      9175 MEMB     80       SAPE     C37      CTL2    -0.180000       12.0110           0
      9176 MEMB     80       SAPE     H7X      HAL2     0.900000E-01   1.00800           0
      9177 MEMB     80       SAPE     H7Y      HAL2     0.900000E-01   1.00800           0
      9178 MEMB     80       SAPE     C38      CTL2    -0.180000       12.0110           0
      9179 MEMB     80       SAPE     H8X      HAL2     0.900000E-01   1.00800           0
      9180 MEMB     80       SAPE     H8Y      HAL2     0.900000E-01   1.00800           0
      9181 MEMB     80       SAPE     C39      CTL2    -0.180000       12.0110           0
      9182 MEMB     80       SAPE     H9X      HAL2     0.900000E-01   1.00800           0
      9183 MEMB     80       SAPE     H9Y      HAL2     0.900000E-01   1.00800           0
      9184 MEMB     80       SAPE     C310     CTL2    -0.180000       12.0110           0
      9185 MEMB     80       SAPE     H10X     HAL2     0.900000E-01   1.00800           0
      9186 MEMB     80       SAPE     H10Y     HAL2     0.900000E-01   1.00800           0
      9187 MEMB     80       SAPE     C311     CTL2    -0.180000       12.0110           0
      9188 MEMB     80       SAPE     H11X     HAL2     0.900000E-01   1.00800           0
      9189 MEMB     80       SAPE     H11Y     HAL2     0.900000E-01   1.00800           0
      9190 MEMB     80       SAPE     C312     CTL2    -0.180000       12.0110           0
      9191 MEMB     80       SAPE     H12X     HAL2     0.900000E-01   1.00800           0
      9192 MEMB     80       SAPE     H12Y     HAL2     0.900000E-01   1.00800           0
      9193 MEMB     80       SAPE     C313     CTL2    -0.180000       12.0110           0
      9194 MEMB     80       SAPE     H13X     HAL2     0.900000E-01   1.00800           0
      9195 MEMB     80       SAPE     H13Y     HAL2     0.900000E-01   1.00800           0
      9196 MEMB     80       SAPE     C314     CTL2    -0.180000       12.0110           0
      9197 MEMB     80       SAPE     H14X     HAL2     0.900000E-01   1.00800           0
      9198 MEMB     80       SAPE     H14Y     HAL2     0.900000E-01   1.00800           0
      9199 MEMB     80       SAPE     C315     CTL2    -0.180000       12.0110           0
      9200 MEMB     80       SAPE     H15X     HAL2     0.900000E-01   1.00800           0
      9201 MEMB     80       SAPE     H15Y     HAL2     0.900000E-01   1.00800           0
      9202 MEMB     80       SAPE     C316     CTL2    -0.180000       12.0110           0
      9203 MEMB     80       SAPE     H16X     HAL2     0.900000E-01   1.00800           0
      9204 MEMB     80       SAPE     H16Y     HAL2     0.900000E-01   1.00800           0
      9205 MEMB     80       SAPE     C317     CTL2    -0.180000       12.0110           0
      9206 MEMB     80       SAPE     H17X     HAL2     0.900000E-01   1.00800           0
      9207 MEMB     80       SAPE     H17Y     HAL2     0.900000E-01   1.00800           0
      9208 MEMB     80       SAPE     C318     CTL3    -0.270000       12.0110           0
      9209 MEMB     80       SAPE     H18X     HAL3     0.900000E-01   1.00800           0
      9210 MEMB     80       SAPE     H18Y     HAL3     0.900000E-01   1.00800           0
      9211 MEMB     80       SAPE     H18Z     HAL3     0.900000E-01   1.00800           0
      9212 MEMB     81       CHL1     C3       CRL1     0.140000       12.0110           0
      9213 MEMB     81       CHL1     H3       HGA1     0.900000E-01   1.00800           0
      9214 MEMB     81       CHL1     O3       OHL     -0.660000       15.9994           0
      9215 MEMB     81       CHL1     H3'      HOL      0.430000       1.00800           0
      9216 MEMB     81       CHL1     C4       CRL2    -0.180000       12.0110           0
      9217 MEMB     81       CHL1     H4A      HGA2     0.900000E-01   1.00800           0
      9218 MEMB     81       CHL1     H4B      HGA2     0.900000E-01   1.00800           0
      9219 MEMB     81       CHL1     C5       CEL1      0.00000       12.0110           0
      9220 MEMB     81       CHL1     C6       CEL1    -0.150000       12.0110           0
      9221 MEMB     81       CHL1     H6       HEL1     0.150000       1.00800           0
      9222 MEMB     81       CHL1     C7       CRL2    -0.180000       12.0110           0
      9223 MEMB     81       CHL1     H7A      HGA2     0.900000E-01   1.00800           0
      9224 MEMB     81       CHL1     H7B      HGA2     0.900000E-01   1.00800           0
      9225 MEMB     81       CHL1     C8       CRL1    -0.900000E-01   12.0110           0
      9226 MEMB     81       CHL1     H8       HGA1     0.900000E-01   1.00800           0
      9227 MEMB     81       CHL1     C14      CRL1    -0.900000E-01   12.0110           0
      9228 MEMB     81       CHL1     H14      HGA1     0.900000E-01   1.00800           0
      9229 MEMB     81       CHL1     C15      CRL2    -0.180000       12.0110           0
      9230 MEMB     81       CHL1     H15A     HGA2     0.900000E-01   1.00800           0
      9231 MEMB     81       CHL1     H15B     HGA2     0.900000E-01   1.00800           0
      9232 MEMB     81       CHL1     C16      CRL2    -0.180000       12.0110           0
      9233 MEMB     81       CHL1     H16A     HGA2     0.900000E-01   1.00800           0
      9234 MEMB     81       CHL1     H16B     HGA2     0.900000E-01   1.00800           0
      9235 MEMB     81       CHL1     C17      CRL1    -0.900000E-01   12.0110           0
      9236 MEMB     81       CHL1     H17      HGA1     0.900000E-01   1.00800           0
      9237 MEMB     81       CHL1     C13      CRL1      0.00000       12.0110           0
      9238 MEMB     81       CHL1     C18      CTL3    -0.270000       12.0110           0
      9239 MEMB     81       CHL1     H18A     HAL3     0.900000E-01   1.00800           0
      9240 MEMB     81       CHL1     H18B     HAL3     0.900000E-01   1.00800           0
      9241 MEMB     81       CHL1     H18C     HAL3     0.900000E-01   1.00800           0
      9242 MEMB     81       CHL1     C12      CRL2    -0.180000       12.0110           0
      9243 MEMB     81       CHL1     H12A     HGA2     0.900000E-01   1.00800           0
      9244 MEMB     81       CHL1     H12B     HGA2     0.900000E-01   1.00800           0
      9245 MEMB     81       CHL1     C11      CRL2    -0.180000       12.0110           0
      9246 MEMB     81       CHL1     H11A     HGA2     0.900000E-01   1.00800           0
      9247 MEMB     81       CHL1     H11B     HGA2     0.900000E-01   1.00800           0
      9248 MEMB     81       CHL1     C9       CRL1    -0.900000E-01   12.0110           0
      9249 MEMB     81       CHL1     H9       HGA1     0.900000E-01   1.00800           0
      9250 MEMB     81       CHL1     C10      CRL1      0.00000       12.0110           0
      9251 MEMB     81       CHL1     C19      CTL3    -0.270000       12.0110           0
      9252 MEMB     81       CHL1     H19A     HAL3     0.900000E-01   1.00800           0
      9253 MEMB     81       CHL1     H19B     HAL3     0.900000E-01   1.00800           0
      9254 MEMB     81       CHL1     H19C     HAL3     0.900000E-01   1.00800           0
      9255 MEMB     81       CHL1     C1       CRL2    -0.180000       12.0110           0
      9256 MEMB     81       CHL1     H1A      HGA2     0.900000E-01   1.00800           0
      9257 MEMB     81       CHL1     H1B      HGA2     0.900000E-01   1.00800           0
      9258 MEMB     81       CHL1     C2       CRL2    -0.180000       12.0110           0
      9259 MEMB     81       CHL1     H2A      HGA2     0.900000E-01   1.00800           0
      9260 MEMB     81       CHL1     H2B      HGA2     0.900000E-01   1.00800           0
      9261 MEMB     81       CHL1     C20      CTL1    -0.900000E-01   12.0110           0
      9262 MEMB     81       CHL1     H20      HAL1     0.900000E-01   1.00800           0
      9263 MEMB     81       CHL1     C21      CTL3    -0.270000       12.0110           0
      9264 MEMB     81       CHL1     H21A     HAL3     0.900000E-01   1.00800           0
      9265 MEMB     81       CHL1     H21B     HAL3     0.900000E-01   1.00800           0
      9266 MEMB     81       CHL1     H21C     HAL3     0.900000E-01   1.00800           0
      9267 MEMB     81       CHL1     C22      CTL2    -0.180000       12.0110           0
      9268 MEMB     81       CHL1     H22A     HAL2     0.900000E-01   1.00800           0
      9269 MEMB     81       CHL1     H22B     HAL2     0.900000E-01   1.00800           0
      9270 MEMB     81       CHL1     C23      CTL2    -0.180000       12.0110           0
      9271 MEMB     81       CHL1     H23A     HAL2     0.900000E-01   1.00800           0
      9272 MEMB     81       CHL1     H23B     HAL2     0.900000E-01   1.00800           0
      9273 MEMB     81       CHL1     C24      CTL2    -0.180000       12.0110           0
      9274 MEMB     81       CHL1     H24A     HAL2     0.900000E-01   1.00800           0
      9275 MEMB     81       CHL1     H24B     HAL2     0.900000E-01   1.00800           0
      9276 MEMB     81       CHL1     C25      CTL1    -0.900000E-01   12.0110           0
      9277 MEMB     81       CHL1     H25      HAL1     0.900000E-01   1.00800           0
      9278 MEMB     81       CHL1     C26      CTL3    -0.270000       12.0110           0
      9279 MEMB     81       CHL1     H26A     HAL3     0.900000E-01   1.00800           0
      9280 MEMB     81       CHL1     H26B     HAL3     0.900000E-01   1.00800           0
      9281 MEMB     81       CHL1     H26C     HAL3     0.900000E-01   1.00800           0
      9282 MEMB     81       CHL1     C27      CTL3    -0.270000       12.0110           0
      9283 MEMB     81       CHL1     H27A     HAL3     0.900000E-01   1.00800           0
      9284 MEMB     81       CHL1     H27B     HAL3     0.900000E-01   1.00800           0
      9285 MEMB     81       CHL1     H27C     HAL3     0.900000E-01   1.00800           0
      9286 MEMB     82       SAPE     N        NH3L    -0.300000       14.0070           0
      9287 MEMB     82       SAPE     HN1      HCL      0.330000       1.00800           0
      9288 MEMB     82       SAPE     HN2      HCL      0.330000       1.00800           0
      9289 MEMB     82       SAPE     HN3      HCL      0.330000       1.00800           0
      9290 MEMB     82       SAPE     C12      CTL2     0.130000       12.0110           0
      9291 MEMB     82       SAPE     H12A     HAL2     0.900000E-01   1.00800           0
      9292 MEMB     82       SAPE     H12B     HAL2     0.900000E-01   1.00800           0
      9293 MEMB     82       SAPE     C11      CTL2    -0.800000E-01   12.0110           0
      9294 MEMB     82       SAPE     H11A     HAL2     0.900000E-01   1.00800           0
      9295 MEMB     82       SAPE     H11B     HAL2     0.900000E-01   1.00800           0
      9296 MEMB     82       SAPE     P        PL        1.50000       30.9740           0
      9297 MEMB     82       SAPE     O13      O2L     -0.780000       15.9994           0
      9298 MEMB     82       SAPE     O14      O2L     -0.780000       15.9994           0
      9299 MEMB     82       SAPE     O12      OSLP    -0.570000       15.9994           0
      9300 MEMB     82       SAPE     O11      OSLP    -0.570000       15.9994           0
      9301 MEMB     82       SAPE     C1       CTL2    -0.800000E-01   12.0110           0
      9302 MEMB     82       SAPE     HA       HAL2     0.900000E-01   1.00800           0
      9303 MEMB     82       SAPE     HB       HAL2     0.900000E-01   1.00800           0
      9304 MEMB     82       SAPE     C2       CTL1     0.170000       12.0110           0
      9305 MEMB     82       SAPE     HS       HAL1     0.900000E-01   1.00800           0
      9306 MEMB     82       SAPE     O21      OSL     -0.490000       15.9994           0
      9307 MEMB     82       SAPE     C21      CL       0.900000       12.0110           0
      9308 MEMB     82       SAPE     O22      OBL     -0.630000       15.9994           0
      9309 MEMB     82       SAPE     C22      CTL2    -0.220000       12.0110           0
      9310 MEMB     82       SAPE     H2R      HAL2     0.900000E-01   1.00800           0
      9311 MEMB     82       SAPE     H2S      HAL2     0.900000E-01   1.00800           0
      9312 MEMB     82       SAPE     C3       CTL2     0.800000E-01   12.0110           0
      9313 MEMB     82       SAPE     HX       HAL2     0.900000E-01   1.00800           0
      9314 MEMB     82       SAPE     HY       HAL2     0.900000E-01   1.00800           0
      9315 MEMB     82       SAPE     O31      OSL     -0.490000       15.9994           0
      9316 MEMB     82       SAPE     C31      CL       0.900000       12.0110           0
      9317 MEMB     82       SAPE     O32      OBL     -0.630000       15.9994           0
      9318 MEMB     82       SAPE     C32      CTL2    -0.220000       12.0110           0
      9319 MEMB     82       SAPE     H2X      HAL2     0.900000E-01   1.00800           0
      9320 MEMB     82       SAPE     H2Y      HAL2     0.900000E-01   1.00800           0
      9321 MEMB     82       SAPE     C23      CTL2    -0.180000       12.0110           0
      9322 MEMB     82       SAPE     H3R      HAL2     0.900000E-01   1.00800           0
      9323 MEMB     82       SAPE     H3S      HAL2     0.900000E-01   1.00800           0
      9324 MEMB     82       SAPE     C24      CTL2    -0.180000       12.0110           0
      9325 MEMB     82       SAPE     H4R      HAL2     0.900000E-01   1.00800           0
      9326 MEMB     82       SAPE     H4S      HAL2     0.900000E-01   1.00800           0
      9327 MEMB     82       SAPE     C25      CEL1    -0.150000       12.0110           0
      9328 MEMB     82       SAPE     H5R      HEL1     0.150000       1.00800           0
      9329 MEMB     82       SAPE     C26      CEL1    -0.150000       12.0110           0
      9330 MEMB     82       SAPE     H6R      HEL1     0.150000       1.00800           0
      9331 MEMB     82       SAPE     C27      CTL2    -0.180000       12.0110           0
      9332 MEMB     82       SAPE     H7R      HAL2     0.900000E-01   1.00800           0
      9333 MEMB     82       SAPE     H7S      HAL2     0.900000E-01   1.00800           0
      9334 MEMB     82       SAPE     C28      CEL1    -0.150000       12.0110           0
      9335 MEMB     82       SAPE     H8R      HEL1     0.150000       1.00800           0
      9336 MEMB     82       SAPE     C29      CEL1    -0.150000       12.0110           0
      9337 MEMB     82       SAPE     H9R      HEL1     0.150000       1.00800           0
      9338 MEMB     82       SAPE     C210     CTL2    -0.180000       12.0110           0
      9339 MEMB     82       SAPE     H10R     HAL2     0.900000E-01   1.00800           0
      9340 MEMB     82       SAPE     H10S     HAL2     0.900000E-01   1.00800           0
      9341 MEMB     82       SAPE     C211     CEL1    -0.150000       12.0110           0
      9342 MEMB     82       SAPE     H11R     HEL1     0.150000       1.00800           0
      9343 MEMB     82       SAPE     C212     CEL1    -0.150000       12.0110           0
      9344 MEMB     82       SAPE     H12R     HEL1     0.150000       1.00800           0
      9345 MEMB     82       SAPE     C213     CTL2    -0.180000       12.0110           0
      9346 MEMB     82       SAPE     H13R     HAL2     0.900000E-01   1.00800           0
      9347 MEMB     82       SAPE     H13S     HAL2     0.900000E-01   1.00800           0
      9348 MEMB     82       SAPE     C214     CEL1    -0.150000       12.0110           0
      9349 MEMB     82       SAPE     H14R     HEL1     0.150000       1.00800           0
      9350 MEMB     82       SAPE     C215     CEL1    -0.150000       12.0110           0
      9351 MEMB     82       SAPE     H15R     HEL1     0.150000       1.00800           0
      9352 MEMB     82       SAPE     C216     CTL2    -0.180000       12.0110           0
      9353 MEMB     82       SAPE     H16R     HAL2     0.900000E-01   1.00800           0
      9354 MEMB     82       SAPE     H16S     HAL2     0.900000E-01   1.00800           0
      9355 MEMB     82       SAPE     C217     CTL2    -0.180000       12.0110           0
      9356 MEMB     82       SAPE     H17R     HAL2     0.900000E-01   1.00800           0
      9357 MEMB     82       SAPE     H17S     HAL2     0.900000E-01   1.00800           0
      9358 MEMB     82       SAPE     C218     CTL2    -0.180000       12.0110           0
      9359 MEMB     82       SAPE     H18R     HAL2     0.900000E-01   1.00800           0
      9360 MEMB     82       SAPE     H18S     HAL2     0.900000E-01   1.00800           0
      9361 MEMB     82       SAPE     C219     CTL2    -0.180000       12.0110           0
      9362 MEMB     82       SAPE     H19R     HAL2     0.900000E-01   1.00800           0
      9363 MEMB     82       SAPE     H19S     HAL2     0.900000E-01   1.00800           0
      9364 MEMB     82       SAPE     C220     CTL3    -0.270000       12.0110           0
      9365 MEMB     82       SAPE     H20R     HAL3     0.900000E-01   1.00800           0
      9366 MEMB     82       SAPE     H20S     HAL3     0.900000E-01   1.00800           0
      9367 MEMB     82       SAPE     H20T     HAL3     0.900000E-01   1.00800           0
      9368 MEMB     82       SAPE     C33      CTL2    -0.180000       12.0110           0
      9369 MEMB     82       SAPE     H3X      HAL2     0.900000E-01   1.00800           0
      9370 MEMB     82       SAPE     H3Y      HAL2     0.900000E-01   1.00800           0
      9371 MEMB     82       SAPE     C34      CTL2    -0.180000       12.0110           0
      9372 MEMB     82       SAPE     H4X      HAL2     0.900000E-01   1.00800           0
      9373 MEMB     82       SAPE     H4Y      HAL2     0.900000E-01   1.00800           0
      9374 MEMB     82       SAPE     C35      CTL2    -0.180000       12.0110           0
      9375 MEMB     82       SAPE     H5X      HAL2     0.900000E-01   1.00800           0
      9376 MEMB     82       SAPE     H5Y      HAL2     0.900000E-01   1.00800           0
      9377 MEMB     82       SAPE     C36      CTL2    -0.180000       12.0110           0
      9378 MEMB     82       SAPE     H6X      HAL2     0.900000E-01   1.00800           0
      9379 MEMB     82       SAPE     H6Y      HAL2     0.900000E-01   1.00800           0
      9380 MEMB     82       SAPE     C37      CTL2    -0.180000       12.0110           0
      9381 MEMB     82       SAPE     H7X      HAL2     0.900000E-01   1.00800           0
      9382 MEMB     82       SAPE     H7Y      HAL2     0.900000E-01   1.00800           0
      9383 MEMB     82       SAPE     C38      CTL2    -0.180000       12.0110           0
      9384 MEMB     82       SAPE     H8X      HAL2     0.900000E-01   1.00800           0
      9385 MEMB     82       SAPE     H8Y      HAL2     0.900000E-01   1.00800           0
      9386 MEMB     82       SAPE     C39      CTL2    -0.180000       12.0110           0
      9387 MEMB     82       SAPE     H9X      HAL2     0.900000E-01   1.00800           0
      9388 MEMB     82       SAPE     H9Y      HAL2     0.900000E-01   1.00800           0
      9389 MEMB     82       SAPE     C310     CTL2    -0.180000       12.0110           0
      9390 MEMB     82       SAPE     H10X     HAL2     0.900000E-01   1.00800           0
      9391 MEMB     82       SAPE     H10Y     HAL2     0.900000E-01   1.00800           0
      9392 MEMB     82       SAPE     C311     CTL2    -0.180000       12.0110           0
      9393 MEMB     82       SAPE     H11X     HAL2     0.900000E-01   1.00800           0
      9394 MEMB     82       SAPE     H11Y     HAL2     0.900000E-01   1.00800           0
      9395 MEMB     82       SAPE     C312     CTL2    -0.180000       12.0110           0
      9396 MEMB     82       SAPE     H12X     HAL2     0.900000E-01   1.00800           0
      9397 MEMB     82       SAPE     H12Y     HAL2     0.900000E-01   1.00800           0
      9398 MEMB     82       SAPE     C313     CTL2    -0.180000       12.0110           0
      9399 MEMB     82       SAPE     H13X     HAL2     0.900000E-01   1.00800           0
      9400 MEMB     82       SAPE     H13Y     HAL2     0.900000E-01   1.00800           0
      9401 MEMB     82       SAPE     C314     CTL2    -0.180000       12.0110           0
      9402 MEMB     82       SAPE     H14X     HAL2     0.900000E-01   1.00800           0
      9403 MEMB     82       SAPE     H14Y     HAL2     0.900000E-01   1.00800           0
      9404 MEMB     82       SAPE     C315     CTL2    -0.180000       12.0110           0
      9405 MEMB     82       SAPE     H15X     HAL2     0.900000E-01   1.00800           0
      9406 MEMB     82       SAPE     H15Y     HAL2     0.900000E-01   1.00800           0
      9407 MEMB     82       SAPE     C316     CTL2    -0.180000       12.0110           0
      9408 MEMB     82       SAPE     H16X     HAL2     0.900000E-01   1.00800           0
      9409 MEMB     82       SAPE     H16Y     HAL2     0.900000E-01   1.00800           0
      9410 MEMB     82       SAPE     C317     CTL2    -0.180000       12.0110           0
      9411 MEMB     82       SAPE     H17X     HAL2     0.900000E-01   1.00800           0
      9412 MEMB     82       SAPE     H17Y     HAL2     0.900000E-01   1.00800           0
      9413 MEMB     82       SAPE     C318     CTL3    -0.270000       12.0110           0
      9414 MEMB     82       SAPE     H18X     HAL3     0.900000E-01   1.00800           0
      9415 MEMB     82       SAPE     H18Y     HAL3     0.900000E-01   1.00800           0
      9416 MEMB     82       SAPE     H18Z     HAL3     0.900000E-01   1.00800           0
      9417 MEMB     83       SLPC     N        NTL     -0.600000       14.0070           0
      9418 MEMB     83       SLPC     C13      CTL5    -0.350000       12.0110           0
      9419 MEMB     83       SLPC     H13A     HL       0.250000       1.00800           0
      9420 MEMB     83       SLPC     H13B     HL       0.250000       1.00800           0
      9421 MEMB     83       SLPC     H13C     HL       0.250000       1.00800           0
      9422 MEMB     83       SLPC     C14      CTL5    -0.350000       12.0110           0
      9423 MEMB     83       SLPC     H14A     HL       0.250000       1.00800           0
      9424 MEMB     83       SLPC     H14B     HL       0.250000       1.00800           0
      9425 MEMB     83       SLPC     H14C     HL       0.250000       1.00800           0
      9426 MEMB     83       SLPC     C15      CTL5    -0.350000       12.0110           0
      9427 MEMB     83       SLPC     H15A     HL       0.250000       1.00800           0
      9428 MEMB     83       SLPC     H15B     HL       0.250000       1.00800           0
      9429 MEMB     83       SLPC     H15C     HL       0.250000       1.00800           0
      9430 MEMB     83       SLPC     C12      CTL2    -0.100000       12.0110           0
      9431 MEMB     83       SLPC     H12A     HL       0.250000       1.00800           0
      9432 MEMB     83       SLPC     H12B     HL       0.250000       1.00800           0
      9433 MEMB     83       SLPC     C11      CTL2    -0.800000E-01   12.0110           0
      9434 MEMB     83       SLPC     H11A     HAL2     0.900000E-01   1.00800           0
      9435 MEMB     83       SLPC     H11B     HAL2     0.900000E-01   1.00800           0
      9436 MEMB     83       SLPC     P        PL        1.50000       30.9740           0
      9437 MEMB     83       SLPC     O13      O2L     -0.780000       15.9994           0
      9438 MEMB     83       SLPC     O14      O2L     -0.780000       15.9994           0
      9439 MEMB     83       SLPC     O12      OSLP    -0.570000       15.9994           0
      9440 MEMB     83       SLPC     O11      OSLP    -0.570000       15.9994           0
      9441 MEMB     83       SLPC     C1       CTL2    -0.800000E-01   12.0110           0
      9442 MEMB     83       SLPC     HA       HAL2     0.900000E-01   1.00800           0
      9443 MEMB     83       SLPC     HB       HAL2     0.900000E-01   1.00800           0
      9444 MEMB     83       SLPC     C2       CTL1     0.170000       12.0110           0
      9445 MEMB     83       SLPC     HS       HAL1     0.900000E-01   1.00800           0
      9446 MEMB     83       SLPC     O21      OSL     -0.490000       15.9994           0
      9447 MEMB     83       SLPC     C21      CL       0.900000       12.0110           0
      9448 MEMB     83       SLPC     O22      OBL     -0.630000       15.9994           0
      9449 MEMB     83       SLPC     C22      CTL2    -0.220000       12.0110           0
      9450 MEMB     83       SLPC     H2R      HAL2     0.900000E-01   1.00800           0
      9451 MEMB     83       SLPC     H2S      HAL2     0.900000E-01   1.00800           0
      9452 MEMB     83       SLPC     C3       CTL2     0.800000E-01   12.0110           0
      9453 MEMB     83       SLPC     HX       HAL2     0.900000E-01   1.00800           0
      9454 MEMB     83       SLPC     HY       HAL2     0.900000E-01   1.00800           0
      9455 MEMB     83       SLPC     O31      OSL     -0.490000       15.9994           0
      9456 MEMB     83       SLPC     C31      CL       0.900000       12.0110           0
      9457 MEMB     83       SLPC     O32      OBL     -0.630000       15.9994           0
      9458 MEMB     83       SLPC     C32      CTL2    -0.220000       12.0110           0
      9459 MEMB     83       SLPC     H2X      HAL2     0.900000E-01   1.00800           0
      9460 MEMB     83       SLPC     H2Y      HAL2     0.900000E-01   1.00800           0
      9461 MEMB     83       SLPC     C23      CTL2    -0.180000       12.0110           0
      9462 MEMB     83       SLPC     H3R      HAL2     0.900000E-01   1.00800           0
      9463 MEMB     83       SLPC     H3S      HAL2     0.900000E-01   1.00800           0
      9464 MEMB     83       SLPC     C24      CTL2    -0.180000       12.0110           0
      9465 MEMB     83       SLPC     H4R      HAL2     0.900000E-01   1.00800           0
      9466 MEMB     83       SLPC     H4S      HAL2     0.900000E-01   1.00800           0
      9467 MEMB     83       SLPC     C25      CTL2    -0.180000       12.0110           0
      9468 MEMB     83       SLPC     H5R      HAL2     0.900000E-01   1.00800           0
      9469 MEMB     83       SLPC     H5S      HAL2     0.900000E-01   1.00800           0
      9470 MEMB     83       SLPC     C26      CTL2    -0.180000       12.0110           0
      9471 MEMB     83       SLPC     H6R      HAL2     0.900000E-01   1.00800           0
      9472 MEMB     83       SLPC     H6S      HAL2     0.900000E-01   1.00800           0
      9473 MEMB     83       SLPC     C27      CTL2    -0.180000       12.0110           0
      9474 MEMB     83       SLPC     H7R      HAL2     0.900000E-01   1.00800           0
      9475 MEMB     83       SLPC     H7S      HAL2     0.900000E-01   1.00800           0
      9476 MEMB     83       SLPC     C28      CTL2    -0.180000       12.0110           0
      9477 MEMB     83       SLPC     H8R      HAL2     0.900000E-01   1.00800           0
      9478 MEMB     83       SLPC     H8S      HAL2     0.900000E-01   1.00800           0
      9479 MEMB     83       SLPC     C29      CEL1    -0.150000       12.0110           0
      9480 MEMB     83       SLPC     H9R      HEL1     0.150000       1.00800           0
      9481 MEMB     83       SLPC     C210     CEL1    -0.150000       12.0110           0
      9482 MEMB     83       SLPC     H10R     HEL1     0.150000       1.00800           0
      9483 MEMB     83       SLPC     C211     CTL2    -0.180000       12.0110           0
      9484 MEMB     83       SLPC     H11R     HAL2     0.900000E-01   1.00800           0
      9485 MEMB     83       SLPC     H11S     HAL2     0.900000E-01   1.00800           0
      9486 MEMB     83       SLPC     C212     CEL1    -0.150000       12.0110           0
      9487 MEMB     83       SLPC     H12R     HEL1     0.150000       1.00800           0
      9488 MEMB     83       SLPC     C213     CEL1    -0.150000       12.0110           0
      9489 MEMB     83       SLPC     H13R     HEL1     0.150000       1.00800           0
      9490 MEMB     83       SLPC     C214     CTL2    -0.180000       12.0110           0
      9491 MEMB     83       SLPC     H14R     HAL2     0.900000E-01   1.00800           0
      9492 MEMB     83       SLPC     H14S     HAL2     0.900000E-01   1.00800           0
      9493 MEMB     83       SLPC     C215     CTL2    -0.180000       12.0110           0
      9494 MEMB     83       SLPC     H15R     HAL2     0.900000E-01   1.00800           0
      9495 MEMB     83       SLPC     H15S     HAL2     0.900000E-01   1.00800           0
      9496 MEMB     83       SLPC     C216     CTL2    -0.180000       12.0110           0
      9497 MEMB     83       SLPC     H16R     HAL2     0.900000E-01   1.00800           0
      9498 MEMB     83       SLPC     H16S     HAL2     0.900000E-01   1.00800           0
      9499 MEMB     83       SLPC     C217     CTL2    -0.180000       12.0110           0
      9500 MEMB     83       SLPC     H17R     HAL2     0.900000E-01   1.00800           0
      9501 MEMB     83       SLPC     H17S     HAL2     0.900000E-01   1.00800           0
      9502 MEMB     83       SLPC     C218     CTL3    -0.270000       12.0110           0
      9503 MEMB     83       SLPC     H18R     HAL3     0.900000E-01   1.00800           0
      9504 MEMB     83       SLPC     H18S     HAL3     0.900000E-01   1.00800           0
      9505 MEMB     83       SLPC     H18T     HAL3     0.900000E-01   1.00800           0
      9506 MEMB     83       SLPC     C33      CTL2    -0.180000       12.0110           0
      9507 MEMB     83       SLPC     H3X      HAL2     0.900000E-01   1.00800           0
      9508 MEMB     83       SLPC     H3Y      HAL2     0.900000E-01   1.00800           0
      9509 MEMB     83       SLPC     C34      CTL2    -0.180000       12.0110           0
      9510 MEMB     83       SLPC     H4X      HAL2     0.900000E-01   1.00800           0
      9511 MEMB     83       SLPC     H4Y      HAL2     0.900000E-01   1.00800           0
      9512 MEMB     83       SLPC     C35      CTL2    -0.180000       12.0110           0
      9513 MEMB     83       SLPC     H5X      HAL2     0.900000E-01   1.00800           0
      9514 MEMB     83       SLPC     H5Y      HAL2     0.900000E-01   1.00800           0
      9515 MEMB     83       SLPC     C36      CTL2    -0.180000       12.0110           0
      9516 MEMB     83       SLPC     H6X      HAL2     0.900000E-01   1.00800           0
      9517 MEMB     83       SLPC     H6Y      HAL2     0.900000E-01   1.00800           0
      9518 MEMB     83       SLPC     C37      CTL2    -0.180000       12.0110           0
      9519 MEMB     83       SLPC     H7X      HAL2     0.900000E-01   1.00800           0
      9520 MEMB     83       SLPC     H7Y      HAL2     0.900000E-01   1.00800           0
      9521 MEMB     83       SLPC     C38      CTL2    -0.180000       12.0110           0
      9522 MEMB     83       SLPC     H8X      HAL2     0.900000E-01   1.00800           0
      9523 MEMB     83       SLPC     H8Y      HAL2     0.900000E-01   1.00800           0
      9524 MEMB     83       SLPC     C39      CTL2    -0.180000       12.0110           0
      9525 MEMB     83       SLPC     H9X      HAL2     0.900000E-01   1.00800           0
      9526 MEMB     83       SLPC     H9Y      HAL2     0.900000E-01   1.00800           0
      9527 MEMB     83       SLPC     C310     CTL2    -0.180000       12.0110           0
      9528 MEMB     83       SLPC     H10X     HAL2     0.900000E-01   1.00800           0
      9529 MEMB     83       SLPC     H10Y     HAL2     0.900000E-01   1.00800           0
      9530 MEMB     83       SLPC     C311     CTL2    -0.180000       12.0110           0
      9531 MEMB     83       SLPC     H11X     HAL2     0.900000E-01   1.00800           0
      9532 MEMB     83       SLPC     H11Y     HAL2     0.900000E-01   1.00800           0
      9533 MEMB     83       SLPC     C312     CTL2    -0.180000       12.0110           0
      9534 MEMB     83       SLPC     H12X     HAL2     0.900000E-01   1.00800           0
      9535 MEMB     83       SLPC     H12Y     HAL2     0.900000E-01   1.00800           0
      9536 MEMB     83       SLPC     C313     CTL2    -0.180000       12.0110           0
      9537 MEMB     83       SLPC     H13X     HAL2     0.900000E-01   1.00800           0
      9538 MEMB     83       SLPC     H13Y     HAL2     0.900000E-01   1.00800           0
      9539 MEMB     83       SLPC     C314     CTL2    -0.180000       12.0110           0
      9540 MEMB     83       SLPC     H14X     HAL2     0.900000E-01   1.00800           0
      9541 MEMB     83       SLPC     H14Y     HAL2     0.900000E-01   1.00800           0
      9542 MEMB     83       SLPC     C315     CTL2    -0.180000       12.0110           0
      9543 MEMB     83       SLPC     H15X     HAL2     0.900000E-01   1.00800           0
      9544 MEMB     83       SLPC     H15Y     HAL2     0.900000E-01   1.00800           0
      9545 MEMB     83       SLPC     C316     CTL2    -0.180000       12.0110           0
      9546 MEMB     83       SLPC     H16X     HAL2     0.900000E-01   1.00800           0
      9547 MEMB     83       SLPC     H16Y     HAL2     0.900000E-01   1.00800           0
      9548 MEMB     83       SLPC     C317     CTL2    -0.180000       12.0110           0
      9549 MEMB     83       SLPC     H17X     HAL2     0.900000E-01   1.00800           0
      9550 MEMB     83       SLPC     H17Y     HAL2     0.900000E-01   1.00800           0
      9551 MEMB     83       SLPC     C318     CTL3    -0.270000       12.0110           0
      9552 MEMB     83       SLPC     H18X     HAL3     0.900000E-01   1.00800           0
      9553 MEMB     83       SLPC     H18Y     HAL3     0.900000E-01   1.00800           0
      9554 MEMB     83       SLPC     H18Z     HAL3     0.900000E-01   1.00800           0
      9555 MEMB     84       SAPC     N        NTL     -0.600000       14.0070           0
      9556 MEMB     84       SAPC     C12      CTL2    -0.100000       12.0110           0
      9557 MEMB     84       SAPC     H12A     HL       0.250000       1.00800           0
      9558 MEMB     84       SAPC     H12B     HL       0.250000       1.00800           0
      9559 MEMB     84       SAPC     C13      CTL5    -0.350000       12.0110           0
      9560 MEMB     84       SAPC     H13A     HL       0.250000       1.00800           0
      9561 MEMB     84       SAPC     H13B     HL       0.250000       1.00800           0
      9562 MEMB     84       SAPC     H13C     HL       0.250000       1.00800           0
      9563 MEMB     84       SAPC     C14      CTL5    -0.350000       12.0110           0
      9564 MEMB     84       SAPC     H14A     HL       0.250000       1.00800           0
      9565 MEMB     84       SAPC     H14B     HL       0.250000       1.00800           0
      9566 MEMB     84       SAPC     H14C     HL       0.250000       1.00800           0
      9567 MEMB     84       SAPC     C15      CTL5    -0.350000       12.0110           0
      9568 MEMB     84       SAPC     H15A     HL       0.250000       1.00800           0
      9569 MEMB     84       SAPC     H15B     HL       0.250000       1.00800           0
      9570 MEMB     84       SAPC     H15C     HL       0.250000       1.00800           0
      9571 MEMB     84       SAPC     C11      CTL2    -0.800000E-01   12.0110           0
      9572 MEMB     84       SAPC     H11A     HAL2     0.900000E-01   1.00800           0
      9573 MEMB     84       SAPC     H11B     HAL2     0.900000E-01   1.00800           0
      9574 MEMB     84       SAPC     P        PL        1.50000       30.9740           0
      9575 MEMB     84       SAPC     O13      O2L     -0.780000       15.9994           0
      9576 MEMB     84       SAPC     O14      O2L     -0.780000       15.9994           0
      9577 MEMB     84       SAPC     O12      OSLP    -0.570000       15.9994           0
      9578 MEMB     84       SAPC     O11      OSLP    -0.570000       15.9994           0
      9579 MEMB     84       SAPC     C1       CTL2    -0.800000E-01   12.0110           0
      9580 MEMB     84       SAPC     HA       HAL2     0.900000E-01   1.00800           0
      9581 MEMB     84       SAPC     HB       HAL2     0.900000E-01   1.00800           0
      9582 MEMB     84       SAPC     C2       CTL1     0.170000       12.0110           0
      9583 MEMB     84       SAPC     HS       HAL1     0.900000E-01   1.00800           0
      9584 MEMB     84       SAPC     O21      OSL     -0.490000       15.9994           0
      9585 MEMB     84       SAPC     C21      CL       0.900000       12.0110           0
      9586 MEMB     84       SAPC     O22      OBL     -0.630000       15.9994           0
      9587 MEMB     84       SAPC     C22      CTL2    -0.220000       12.0110           0
      9588 MEMB     84       SAPC     H2R      HAL2     0.900000E-01   1.00800           0
      9589 MEMB     84       SAPC     H2S      HAL2     0.900000E-01   1.00800           0
      9590 MEMB     84       SAPC     C3       CTL2     0.800000E-01   12.0110           0
      9591 MEMB     84       SAPC     HX       HAL2     0.900000E-01   1.00800           0
      9592 MEMB     84       SAPC     HY       HAL2     0.900000E-01   1.00800           0
      9593 MEMB     84       SAPC     O31      OSL     -0.490000       15.9994           0
      9594 MEMB     84       SAPC     C31      CL       0.900000       12.0110           0
      9595 MEMB     84       SAPC     O32      OBL     -0.630000       15.9994           0
      9596 MEMB     84       SAPC     C32      CTL2    -0.220000       12.0110           0
      9597 MEMB     84       SAPC     H2X      HAL2     0.900000E-01   1.00800           0
      9598 MEMB     84       SAPC     H2Y      HAL2     0.900000E-01   1.00800           0
      9599 MEMB     84       SAPC     C23      CTL2    -0.180000       12.0110           0
      9600 MEMB     84       SAPC     H3R      HAL2     0.900000E-01   1.00800           0
      9601 MEMB     84       SAPC     H3S      HAL2     0.900000E-01   1.00800           0
      9602 MEMB     84       SAPC     C24      CTL2    -0.180000       12.0110           0
      9603 MEMB     84       SAPC     H4R      HAL2     0.900000E-01   1.00800           0
      9604 MEMB     84       SAPC     H4S      HAL2     0.900000E-01   1.00800           0
      9605 MEMB     84       SAPC     C25      CEL1    -0.150000       12.0110           0
      9606 MEMB     84       SAPC     H5R      HEL1     0.150000       1.00800           0
      9607 MEMB     84       SAPC     C26      CEL1    -0.150000       12.0110           0
      9608 MEMB     84       SAPC     H6R      HEL1     0.150000       1.00800           0
      9609 MEMB     84       SAPC     C27      CTL2    -0.180000       12.0110           0
      9610 MEMB     84       SAPC     H7R      HAL2     0.900000E-01   1.00800           0
      9611 MEMB     84       SAPC     H7S      HAL2     0.900000E-01   1.00800           0
      9612 MEMB     84       SAPC     C28      CEL1    -0.150000       12.0110           0
      9613 MEMB     84       SAPC     H8R      HEL1     0.150000       1.00800           0
      9614 MEMB     84       SAPC     C29      CEL1    -0.150000       12.0110           0
      9615 MEMB     84       SAPC     H9R      HEL1     0.150000       1.00800           0
      9616 MEMB     84       SAPC     C210     CTL2    -0.180000       12.0110           0
      9617 MEMB     84       SAPC     H10R     HAL2     0.900000E-01   1.00800           0
      9618 MEMB     84       SAPC     H10S     HAL2     0.900000E-01   1.00800           0
      9619 MEMB     84       SAPC     C211     CEL1    -0.150000       12.0110           0
      9620 MEMB     84       SAPC     H11R     HEL1     0.150000       1.00800           0
      9621 MEMB     84       SAPC     C212     CEL1    -0.150000       12.0110           0
      9622 MEMB     84       SAPC     H12R     HEL1     0.150000       1.00800           0
      9623 MEMB     84       SAPC     C213     CTL2    -0.180000       12.0110           0
      9624 MEMB     84       SAPC     H13R     HAL2     0.900000E-01   1.00800           0
      9625 MEMB     84       SAPC     H13S     HAL2     0.900000E-01   1.00800           0
      9626 MEMB     84       SAPC     C214     CEL1    -0.150000       12.0110           0
      9627 MEMB     84       SAPC     H14R     HEL1     0.150000       1.00800           0
      9628 MEMB     84       SAPC     C215     CEL1    -0.150000       12.0110           0
      9629 MEMB     84       SAPC     H15R     HEL1     0.150000       1.00800           0
      9630 MEMB     84       SAPC     C216     CTL2    -0.180000       12.0110           0
      9631 MEMB     84       SAPC     H16R     HAL2     0.900000E-01   1.00800           0
      9632 MEMB     84       SAPC     H16S     HAL2     0.900000E-01   1.00800           0
      9633 MEMB     84       SAPC     C217     CTL2    -0.180000       12.0110           0
      9634 MEMB     84       SAPC     H17R     HAL2     0.900000E-01   1.00800           0
      9635 MEMB     84       SAPC     H17S     HAL2     0.900000E-01   1.00800           0
      9636 MEMB     84       SAPC     C218     CTL2    -0.270000       12.0110           0
      9637 MEMB     84       SAPC     H18R     HAL2     0.900000E-01   1.00800           0
      9638 MEMB     84       SAPC     H18S     HAL2     0.900000E-01   1.00800           0
      9639 MEMB     84       SAPC     C219     CTL2    -0.180000       12.0110           0
      9640 MEMB     84       SAPC     H19R     HAL2     0.900000E-01   1.00800           0
      9641 MEMB     84       SAPC     H19S     HAL2     0.900000E-01   1.00800           0
      9642 MEMB     84       SAPC     C220     CTL3    -0.180000       12.0110           0
      9643 MEMB     84       SAPC     H20R     HAL3     0.900000E-01   1.00800           0
      9644 MEMB     84       SAPC     H20S     HAL3     0.900000E-01   1.00800           0
      9645 MEMB     84       SAPC     H20T     HAL3     0.900000E-01   1.00800           0
      9646 MEMB     84       SAPC     C33      CTL2    -0.180000       12.0110           0
      9647 MEMB     84       SAPC     H3X      HAL2     0.900000E-01   1.00800           0
      9648 MEMB     84       SAPC     H3Y      HAL2     0.900000E-01   1.00800           0
      9649 MEMB     84       SAPC     C34      CTL2    -0.180000       12.0110           0
      9650 MEMB     84       SAPC     H4X      HAL2     0.900000E-01   1.00800           0
      9651 MEMB     84       SAPC     H4Y      HAL2     0.900000E-01   1.00800           0
      9652 MEMB     84       SAPC     C35      CTL2    -0.180000       12.0110           0
      9653 MEMB     84       SAPC     H5X      HAL2     0.900000E-01   1.00800           0
      9654 MEMB     84       SAPC     H5Y      HAL2     0.900000E-01   1.00800           0
      9655 MEMB     84       SAPC     C36      CTL2    -0.180000       12.0110           0
      9656 MEMB     84       SAPC     H6X      HAL2     0.900000E-01   1.00800           0
      9657 MEMB     84       SAPC     H6Y      HAL2     0.900000E-01   1.00800           0
      9658 MEMB     84       SAPC     C37      CTL2    -0.180000       12.0110           0
      9659 MEMB     84       SAPC     H7X      HAL2     0.900000E-01   1.00800           0
      9660 MEMB     84       SAPC     H7Y      HAL2     0.900000E-01   1.00800           0
      9661 MEMB     84       SAPC     C38      CTL2    -0.180000       12.0110           0
      9662 MEMB     84       SAPC     H8X      HAL2     0.900000E-01   1.00800           0
      9663 MEMB     84       SAPC     H8Y      HAL2     0.900000E-01   1.00800           0
      9664 MEMB     84       SAPC     C39      CTL2    -0.180000       12.0110           0
      9665 MEMB     84       SAPC     H9X      HAL2     0.900000E-01   1.00800           0
      9666 MEMB     84       SAPC     H9Y      HAL2     0.900000E-01   1.00800           0
      9667 MEMB     84       SAPC     C310     CTL2    -0.180000       12.0110           0
      9668 MEMB     84       SAPC     H10X     HAL2     0.900000E-01   1.00800           0
      9669 MEMB     84       SAPC     H10Y     HAL2     0.900000E-01   1.00800           0
      9670 MEMB     84       SAPC     C311     CTL2    -0.180000       12.0110           0
      9671 MEMB     84       SAPC     H11X     HAL2     0.900000E-01   1.00800           0
      9672 MEMB     84       SAPC     H11Y     HAL2     0.900000E-01   1.00800           0
      9673 MEMB     84       SAPC     C312     CTL2    -0.180000       12.0110           0
      9674 MEMB     84       SAPC     H12X     HAL2     0.900000E-01   1.00800           0
      9675 MEMB     84       SAPC     H12Y     HAL2     0.900000E-01   1.00800           0
      9676 MEMB     84       SAPC     C313     CTL2    -0.180000       12.0110           0
      9677 MEMB     84       SAPC     H13X     HAL2     0.900000E-01   1.00800           0
      9678 MEMB     84       SAPC     H13Y     HAL2     0.900000E-01   1.00800           0
      9679 MEMB     84       SAPC     C314     CTL2    -0.180000       12.0110           0
      9680 MEMB     84       SAPC     H14X     HAL2     0.900000E-01   1.00800           0
      9681 MEMB     84       SAPC     H14Y     HAL2     0.900000E-01   1.00800           0
      9682 MEMB     84       SAPC     C315     CTL2    -0.180000       12.0110           0
      9683 MEMB     84       SAPC     H15X     HAL2     0.900000E-01   1.00800           0
      9684 MEMB     84       SAPC     H15Y     HAL2     0.900000E-01   1.00800           0
      9685 MEMB     84       SAPC     C316     CTL2    -0.180000       12.0110           0
      9686 MEMB     84       SAPC     H16X     HAL2     0.900000E-01   1.00800           0
      9687 MEMB     84       SAPC     H16Y     HAL2     0.900000E-01   1.00800           0
      9688 MEMB     84       SAPC     C317     CTL2    -0.180000       12.0110           0
      9689 MEMB     84       SAPC     H17X     HAL2     0.900000E-01   1.00800           0
      9690 MEMB     84       SAPC     H17Y     HAL2     0.900000E-01   1.00800           0
      9691 MEMB     84       SAPC     C318     CTL3    -0.270000       12.0110           0
      9692 MEMB     84       SAPC     H18X     HAL3     0.900000E-01   1.00800           0
      9693 MEMB     84       SAPC     H18Y     HAL3     0.900000E-01   1.00800           0
      9694 MEMB     84       SAPC     H18Z     HAL3     0.900000E-01   1.00800           0
      9695 MEMB     85       SAPE     N        NH3L    -0.300000       14.0070           0
      9696 MEMB     85       SAPE     HN1      HCL      0.330000       1.00800           0
      9697 MEMB     85       SAPE     HN2      HCL      0.330000       1.00800           0
      9698 MEMB     85       SAPE     HN3      HCL      0.330000       1.00800           0
      9699 MEMB     85       SAPE     C12      CTL2     0.130000       12.0110           0
      9700 MEMB     85       SAPE     H12A     HAL2     0.900000E-01   1.00800           0
      9701 MEMB     85       SAPE     H12B     HAL2     0.900000E-01   1.00800           0
      9702 MEMB     85       SAPE     C11      CTL2    -0.800000E-01   12.0110           0
      9703 MEMB     85       SAPE     H11A     HAL2     0.900000E-01   1.00800           0
      9704 MEMB     85       SAPE     H11B     HAL2     0.900000E-01   1.00800           0
      9705 MEMB     85       SAPE     P        PL        1.50000       30.9740           0
      9706 MEMB     85       SAPE     O13      O2L     -0.780000       15.9994           0
      9707 MEMB     85       SAPE     O14      O2L     -0.780000       15.9994           0
      9708 MEMB     85       SAPE     O12      OSLP    -0.570000       15.9994           0
      9709 MEMB     85       SAPE     O11      OSLP    -0.570000       15.9994           0
      9710 MEMB     85       SAPE     C1       CTL2    -0.800000E-01   12.0110           0
      9711 MEMB     85       SAPE     HA       HAL2     0.900000E-01   1.00800           0
      9712 MEMB     85       SAPE     HB       HAL2     0.900000E-01   1.00800           0
      9713 MEMB     85       SAPE     C2       CTL1     0.170000       12.0110           0
      9714 MEMB     85       SAPE     HS       HAL1     0.900000E-01   1.00800           0
      9715 MEMB     85       SAPE     O21      OSL     -0.490000       15.9994           0
      9716 MEMB     85       SAPE     C21      CL       0.900000       12.0110           0
      9717 MEMB     85       SAPE     O22      OBL     -0.630000       15.9994           0
      9718 MEMB     85       SAPE     C22      CTL2    -0.220000       12.0110           0
      9719 MEMB     85       SAPE     H2R      HAL2     0.900000E-01   1.00800           0
      9720 MEMB     85       SAPE     H2S      HAL2     0.900000E-01   1.00800           0
      9721 MEMB     85       SAPE     C3       CTL2     0.800000E-01   12.0110           0
      9722 MEMB     85       SAPE     HX       HAL2     0.900000E-01   1.00800           0
      9723 MEMB     85       SAPE     HY       HAL2     0.900000E-01   1.00800           0
      9724 MEMB     85       SAPE     O31      OSL     -0.490000       15.9994           0
      9725 MEMB     85       SAPE     C31      CL       0.900000       12.0110           0
      9726 MEMB     85       SAPE     O32      OBL     -0.630000       15.9994           0
      9727 MEMB     85       SAPE     C32      CTL2    -0.220000       12.0110           0
      9728 MEMB     85       SAPE     H2X      HAL2     0.900000E-01   1.00800           0
      9729 MEMB     85       SAPE     H2Y      HAL2     0.900000E-01   1.00800           0
      9730 MEMB     85       SAPE     C23      CTL2    -0.180000       12.0110           0
      9731 MEMB     85       SAPE     H3R      HAL2     0.900000E-01   1.00800           0
      9732 MEMB     85       SAPE     H3S      HAL2     0.900000E-01   1.00800           0
      9733 MEMB     85       SAPE     C24      CTL2    -0.180000       12.0110           0
      9734 MEMB     85       SAPE     H4R      HAL2     0.900000E-01   1.00800           0
      9735 MEMB     85       SAPE     H4S      HAL2     0.900000E-01   1.00800           0
      9736 MEMB     85       SAPE     C25      CEL1    -0.150000       12.0110           0
      9737 MEMB     85       SAPE     H5R      HEL1     0.150000       1.00800           0
      9738 MEMB     85       SAPE     C26      CEL1    -0.150000       12.0110           0
      9739 MEMB     85       SAPE     H6R      HEL1     0.150000       1.00800           0
      9740 MEMB     85       SAPE     C27      CTL2    -0.180000       12.0110           0
      9741 MEMB     85       SAPE     H7R      HAL2     0.900000E-01   1.00800           0
      9742 MEMB     85       SAPE     H7S      HAL2     0.900000E-01   1.00800           0
      9743 MEMB     85       SAPE     C28      CEL1    -0.150000       12.0110           0
      9744 MEMB     85       SAPE     H8R      HEL1     0.150000       1.00800           0
      9745 MEMB     85       SAPE     C29      CEL1    -0.150000       12.0110           0
      9746 MEMB     85       SAPE     H9R      HEL1     0.150000       1.00800           0
      9747 MEMB     85       SAPE     C210     CTL2    -0.180000       12.0110           0
      9748 MEMB     85       SAPE     H10R     HAL2     0.900000E-01   1.00800           0
      9749 MEMB     85       SAPE     H10S     HAL2     0.900000E-01   1.00800           0
      9750 MEMB     85       SAPE     C211     CEL1    -0.150000       12.0110           0
      9751 MEMB     85       SAPE     H11R     HEL1     0.150000       1.00800           0
      9752 MEMB     85       SAPE     C212     CEL1    -0.150000       12.0110           0
      9753 MEMB     85       SAPE     H12R     HEL1     0.150000       1.00800           0
      9754 MEMB     85       SAPE     C213     CTL2    -0.180000       12.0110           0
      9755 MEMB     85       SAPE     H13R     HAL2     0.900000E-01   1.00800           0
      9756 MEMB     85       SAPE     H13S     HAL2     0.900000E-01   1.00800           0
      9757 MEMB     85       SAPE     C214     CEL1    -0.150000       12.0110           0
      9758 MEMB     85       SAPE     H14R     HEL1     0.150000       1.00800           0
      9759 MEMB     85       SAPE     C215     CEL1    -0.150000       12.0110           0
      9760 MEMB     85       SAPE     H15R     HEL1     0.150000       1.00800           0
      9761 MEMB     85       SAPE     C216     CTL2    -0.180000       12.0110           0
      9762 MEMB     85       SAPE     H16R     HAL2     0.900000E-01   1.00800           0
      9763 MEMB     85       SAPE     H16S     HAL2     0.900000E-01   1.00800           0
      9764 MEMB     85       SAPE     C217     CTL2    -0.180000       12.0110           0
      9765 MEMB     85       SAPE     H17R     HAL2     0.900000E-01   1.00800           0
      9766 MEMB     85       SAPE     H17S     HAL2     0.900000E-01   1.00800           0
      9767 MEMB     85       SAPE     C218     CTL2    -0.180000       12.0110           0
      9768 MEMB     85       SAPE     H18R     HAL2     0.900000E-01   1.00800           0
      9769 MEMB     85       SAPE     H18S     HAL2     0.900000E-01   1.00800           0
      9770 MEMB     85       SAPE     C219     CTL2    -0.180000       12.0110           0
      9771 MEMB     85       SAPE     H19R     HAL2     0.900000E-01   1.00800           0
      9772 MEMB     85       SAPE     H19S     HAL2     0.900000E-01   1.00800           0
      9773 MEMB     85       SAPE     C220     CTL3    -0.270000       12.0110           0
      9774 MEMB     85       SAPE     H20R     HAL3     0.900000E-01   1.00800           0
      9775 MEMB     85       SAPE     H20S     HAL3     0.900000E-01   1.00800           0
      9776 MEMB     85       SAPE     H20T     HAL3     0.900000E-01   1.00800           0
      9777 MEMB     85       SAPE     C33      CTL2    -0.180000       12.0110           0
      9778 MEMB     85       SAPE     H3X      HAL2     0.900000E-01   1.00800           0
      9779 MEMB     85       SAPE     H3Y      HAL2     0.900000E-01   1.00800           0
      9780 MEMB     85       SAPE     C34      CTL2    -0.180000       12.0110           0
      9781 MEMB     85       SAPE     H4X      HAL2     0.900000E-01   1.00800           0
      9782 MEMB     85       SAPE     H4Y      HAL2     0.900000E-01   1.00800           0
      9783 MEMB     85       SAPE     C35      CTL2    -0.180000       12.0110           0
      9784 MEMB     85       SAPE     H5X      HAL2     0.900000E-01   1.00800           0
      9785 MEMB     85       SAPE     H5Y      HAL2     0.900000E-01   1.00800           0
      9786 MEMB     85       SAPE     C36      CTL2    -0.180000       12.0110           0
      9787 MEMB     85       SAPE     H6X      HAL2     0.900000E-01   1.00800           0
      9788 MEMB     85       SAPE     H6Y      HAL2     0.900000E-01   1.00800           0
      9789 MEMB     85       SAPE     C37      CTL2    -0.180000       12.0110           0
      9790 MEMB     85       SAPE     H7X      HAL2     0.900000E-01   1.00800           0
      9791 MEMB     85       SAPE     H7Y      HAL2     0.900000E-01   1.00800           0
      9792 MEMB     85       SAPE     C38      CTL2    -0.180000       12.0110           0
      9793 MEMB     85       SAPE     H8X      HAL2     0.900000E-01   1.00800           0
      9794 MEMB     85       SAPE     H8Y      HAL2     0.900000E-01   1.00800           0
      9795 MEMB     85       SAPE     C39      CTL2    -0.180000       12.0110           0
      9796 MEMB     85       SAPE     H9X      HAL2     0.900000E-01   1.00800           0
      9797 MEMB     85       SAPE     H9Y      HAL2     0.900000E-01   1.00800           0
      9798 MEMB     85       SAPE     C310     CTL2    -0.180000       12.0110           0
      9799 MEMB     85       SAPE     H10X     HAL2     0.900000E-01   1.00800           0
      9800 MEMB     85       SAPE     H10Y     HAL2     0.900000E-01   1.00800           0
      9801 MEMB     85       SAPE     C311     CTL2    -0.180000       12.0110           0
      9802 MEMB     85       SAPE     H11X     HAL2     0.900000E-01   1.00800           0
      9803 MEMB     85       SAPE     H11Y     HAL2     0.900000E-01   1.00800           0
      9804 MEMB     85       SAPE     C312     CTL2    -0.180000       12.0110           0
      9805 MEMB     85       SAPE     H12X     HAL2     0.900000E-01   1.00800           0
      9806 MEMB     85       SAPE     H12Y     HAL2     0.900000E-01   1.00800           0
      9807 MEMB     85       SAPE     C313     CTL2    -0.180000       12.0110           0
      9808 MEMB     85       SAPE     H13X     HAL2     0.900000E-01   1.00800           0
      9809 MEMB     85       SAPE     H13Y     HAL2     0.900000E-01   1.00800           0
      9810 MEMB     85       SAPE     C314     CTL2    -0.180000       12.0110           0
      9811 MEMB     85       SAPE     H14X     HAL2     0.900000E-01   1.00800           0
      9812 MEMB     85       SAPE     H14Y     HAL2     0.900000E-01   1.00800           0
      9813 MEMB     85       SAPE     C315     CTL2    -0.180000       12.0110           0
      9814 MEMB     85       SAPE     H15X     HAL2     0.900000E-01   1.00800           0
      9815 MEMB     85       SAPE     H15Y     HAL2     0.900000E-01   1.00800           0
      9816 MEMB     85       SAPE     C316     CTL2    -0.180000       12.0110           0
      9817 MEMB     85       SAPE     H16X     HAL2     0.900000E-01   1.00800           0
      9818 MEMB     85       SAPE     H16Y     HAL2     0.900000E-01   1.00800           0
      9819 MEMB     85       SAPE     C317     CTL2    -0.180000       12.0110           0
      9820 MEMB     85       SAPE     H17X     HAL2     0.900000E-01   1.00800           0
      9821 MEMB     85       SAPE     H17Y     HAL2     0.900000E-01   1.00800           0
      9822 MEMB     85       SAPE     C318     CTL3    -0.270000       12.0110           0
      9823 MEMB     85       SAPE     H18X     HAL3     0.900000E-01   1.00800           0
      9824 MEMB     85       SAPE     H18Y     HAL3     0.900000E-01   1.00800           0
      9825 MEMB     85       SAPE     H18Z     HAL3     0.900000E-01   1.00800           0
      9826 MEMB     86       CHL1     C3       CRL1     0.140000       12.0110           0
      9827 MEMB     86       CHL1     H3       HGA1     0.900000E-01   1.00800           0
      9828 MEMB     86       CHL1     O3       OHL     -0.660000       15.9994           0
      9829 MEMB     86       CHL1     H3'      HOL      0.430000       1.00800           0
      9830 MEMB     86       CHL1     C4       CRL2    -0.180000       12.0110           0
      9831 MEMB     86       CHL1     H4A      HGA2     0.900000E-01   1.00800           0
      9832 MEMB     86       CHL1     H4B      HGA2     0.900000E-01   1.00800           0
      9833 MEMB     86       CHL1     C5       CEL1      0.00000       12.0110           0
      9834 MEMB     86       CHL1     C6       CEL1    -0.150000       12.0110           0
      9835 MEMB     86       CHL1     H6       HEL1     0.150000       1.00800           0
      9836 MEMB     86       CHL1     C7       CRL2    -0.180000       12.0110           0
      9837 MEMB     86       CHL1     H7A      HGA2     0.900000E-01   1.00800           0
      9838 MEMB     86       CHL1     H7B      HGA2     0.900000E-01   1.00800           0
      9839 MEMB     86       CHL1     C8       CRL1    -0.900000E-01   12.0110           0
      9840 MEMB     86       CHL1     H8       HGA1     0.900000E-01   1.00800           0
      9841 MEMB     86       CHL1     C14      CRL1    -0.900000E-01   12.0110           0
      9842 MEMB     86       CHL1     H14      HGA1     0.900000E-01   1.00800           0
      9843 MEMB     86       CHL1     C15      CRL2    -0.180000       12.0110           0
      9844 MEMB     86       CHL1     H15A     HGA2     0.900000E-01   1.00800           0
      9845 MEMB     86       CHL1     H15B     HGA2     0.900000E-01   1.00800           0
      9846 MEMB     86       CHL1     C16      CRL2    -0.180000       12.0110           0
      9847 MEMB     86       CHL1     H16A     HGA2     0.900000E-01   1.00800           0
      9848 MEMB     86       CHL1     H16B     HGA2     0.900000E-01   1.00800           0
      9849 MEMB     86       CHL1     C17      CRL1    -0.900000E-01   12.0110           0
      9850 MEMB     86       CHL1     H17      HGA1     0.900000E-01   1.00800           0
      9851 MEMB     86       CHL1     C13      CRL1      0.00000       12.0110           0
      9852 MEMB     86       CHL1     C18      CTL3    -0.270000       12.0110           0
      9853 MEMB     86       CHL1     H18A     HAL3     0.900000E-01   1.00800           0
      9854 MEMB     86       CHL1     H18B     HAL3     0.900000E-01   1.00800           0
      9855 MEMB     86       CHL1     H18C     HAL3     0.900000E-01   1.00800           0
      9856 MEMB     86       CHL1     C12      CRL2    -0.180000       12.0110           0
      9857 MEMB     86       CHL1     H12A     HGA2     0.900000E-01   1.00800           0
      9858 MEMB     86       CHL1     H12B     HGA2     0.900000E-01   1.00800           0
      9859 MEMB     86       CHL1     C11      CRL2    -0.180000       12.0110           0
      9860 MEMB     86       CHL1     H11A     HGA2     0.900000E-01   1.00800           0
      9861 MEMB     86       CHL1     H11B     HGA2     0.900000E-01   1.00800           0
      9862 MEMB     86       CHL1     C9       CRL1    -0.900000E-01   12.0110           0
      9863 MEMB     86       CHL1     H9       HGA1     0.900000E-01   1.00800           0
      9864 MEMB     86       CHL1     C10      CRL1      0.00000       12.0110           0
      9865 MEMB     86       CHL1     C19      CTL3    -0.270000       12.0110           0
      9866 MEMB     86       CHL1     H19A     HAL3     0.900000E-01   1.00800           0
      9867 MEMB     86       CHL1     H19B     HAL3     0.900000E-01   1.00800           0
      9868 MEMB     86       CHL1     H19C     HAL3     0.900000E-01   1.00800           0
      9869 MEMB     86       CHL1     C1       CRL2    -0.180000       12.0110           0
      9870 MEMB     86       CHL1     H1A      HGA2     0.900000E-01   1.00800           0
      9871 MEMB     86       CHL1     H1B      HGA2     0.900000E-01   1.00800           0
      9872 MEMB     86       CHL1     C2       CRL2    -0.180000       12.0110           0
      9873 MEMB     86       CHL1     H2A      HGA2     0.900000E-01   1.00800           0
      9874 MEMB     86       CHL1     H2B      HGA2     0.900000E-01   1.00800           0
      9875 MEMB     86       CHL1     C20      CTL1    -0.900000E-01   12.0110           0
      9876 MEMB     86       CHL1     H20      HAL1     0.900000E-01   1.00800           0
      9877 MEMB     86       CHL1     C21      CTL3    -0.270000       12.0110           0
      9878 MEMB     86       CHL1     H21A     HAL3     0.900000E-01   1.00800           0
      9879 MEMB     86       CHL1     H21B     HAL3     0.900000E-01   1.00800           0
      9880 MEMB     86       CHL1     H21C     HAL3     0.900000E-01   1.00800           0
      9881 MEMB     86       CHL1     C22      CTL2    -0.180000       12.0110           0
      9882 MEMB     86       CHL1     H22A     HAL2     0.900000E-01   1.00800           0
      9883 MEMB     86       CHL1     H22B     HAL2     0.900000E-01   1.00800           0
      9884 MEMB     86       CHL1     C23      CTL2    -0.180000       12.0110           0
      9885 MEMB     86       CHL1     H23A     HAL2     0.900000E-01   1.00800           0
      9886 MEMB     86       CHL1     H23B     HAL2     0.900000E-01   1.00800           0
      9887 MEMB     86       CHL1     C24      CTL2    -0.180000       12.0110           0
      9888 MEMB     86       CHL1     H24A     HAL2     0.900000E-01   1.00800           0
      9889 MEMB     86       CHL1     H24B     HAL2     0.900000E-01   1.00800           0
      9890 MEMB     86       CHL1     C25      CTL1    -0.900000E-01   12.0110           0
      9891 MEMB     86       CHL1     H25      HAL1     0.900000E-01   1.00800           0
      9892 MEMB     86       CHL1     C26      CTL3    -0.270000       12.0110           0
      9893 MEMB     86       CHL1     H26A     HAL3     0.900000E-01   1.00800           0
      9894 MEMB     86       CHL1     H26B     HAL3     0.900000E-01   1.00800           0
      9895 MEMB     86       CHL1     H26C     HAL3     0.900000E-01   1.00800           0
      9896 MEMB     86       CHL1     C27      CTL3    -0.270000       12.0110           0
      9897 MEMB     86       CHL1     H27A     HAL3     0.900000E-01   1.00800           0
      9898 MEMB     86       CHL1     H27B     HAL3     0.900000E-01   1.00800           0
      9899 MEMB     86       CHL1     H27C     HAL3     0.900000E-01   1.00800           0
      9900 MEMB     87       SAPS     N        NH3L    -0.300000       14.0070           0
      9901 MEMB     87       SAPS     HN1      HCL      0.330000       1.00800           0
      9902 MEMB     87       SAPS     HN2      HCL      0.330000       1.00800           0
      9903 MEMB     87       SAPS     HN3      HCL      0.330000       1.00800           0
      9904 MEMB     87       SAPS     C12      CTL1     0.210000       12.0110           0
      9905 MEMB     87       SAPS     H12A     HBL      0.100000       1.00800           0
      9906 MEMB     87       SAPS     C13      CCL      0.340000       12.0110           0
      9907 MEMB     87       SAPS     O13A     OCL     -0.670000       15.9994           0
      9908 MEMB     87       SAPS     O13B     OCL     -0.670000       15.9994           0
      9909 MEMB     87       SAPS     C11      CTL2    -0.800000E-01   12.0110           0
      9910 MEMB     87       SAPS     H11A     HAL2     0.900000E-01   1.00800           0
      9911 MEMB     87       SAPS     H11B     HAL2     0.900000E-01   1.00800           0
      9912 MEMB     87       SAPS     P        PL        1.50000       30.9740           0
      9913 MEMB     87       SAPS     O13      O2L     -0.780000       15.9994           0
      9914 MEMB     87       SAPS     O14      O2L     -0.780000       15.9994           0
      9915 MEMB     87       SAPS     O12      OSLP    -0.570000       15.9994           0
      9916 MEMB     87       SAPS     O11      OSLP    -0.570000       15.9994           0
      9917 MEMB     87       SAPS     C1       CTL2    -0.800000E-01   12.0110           0
      9918 MEMB     87       SAPS     HA       HAL2     0.900000E-01   1.00800           0
      9919 MEMB     87       SAPS     HB       HAL2     0.900000E-01   1.00800           0
      9920 MEMB     87       SAPS     C2       CTL1     0.170000       12.0110           0
      9921 MEMB     87       SAPS     HS       HAL1     0.900000E-01   1.00800           0
      9922 MEMB     87       SAPS     O21      OSL     -0.490000       15.9994           0
      9923 MEMB     87       SAPS     C21      CL       0.900000       12.0110           0
      9924 MEMB     87       SAPS     O22      OBL     -0.630000       15.9994           0
      9925 MEMB     87       SAPS     C22      CTL2    -0.220000       12.0110           0
      9926 MEMB     87       SAPS     H2R      HAL2     0.900000E-01   1.00800           0
      9927 MEMB     87       SAPS     H2S      HAL2     0.900000E-01   1.00800           0
      9928 MEMB     87       SAPS     C3       CTL2     0.800000E-01   12.0110           0
      9929 MEMB     87       SAPS     HX       HAL2     0.900000E-01   1.00800           0
      9930 MEMB     87       SAPS     HY       HAL2     0.900000E-01   1.00800           0
      9931 MEMB     87       SAPS     O31      OSL     -0.490000       15.9994           0
      9932 MEMB     87       SAPS     C31      CL       0.900000       12.0110           0
      9933 MEMB     87       SAPS     O32      OBL     -0.630000       15.9994           0
      9934 MEMB     87       SAPS     C32      CTL2    -0.220000       12.0110           0
      9935 MEMB     87       SAPS     H2X      HAL2     0.900000E-01   1.00800           0
      9936 MEMB     87       SAPS     H2Y      HAL2     0.900000E-01   1.00800           0
      9937 MEMB     87       SAPS     C23      CTL2    -0.180000       12.0110           0
      9938 MEMB     87       SAPS     H3R      HAL2     0.900000E-01   1.00800           0
      9939 MEMB     87       SAPS     H3S      HAL2     0.900000E-01   1.00800           0
      9940 MEMB     87       SAPS     C24      CTL2    -0.180000       12.0110           0
      9941 MEMB     87       SAPS     H4R      HAL2     0.900000E-01   1.00800           0
      9942 MEMB     87       SAPS     H4S      HAL2     0.900000E-01   1.00800           0
      9943 MEMB     87       SAPS     C25      CEL1    -0.150000       12.0110           0
      9944 MEMB     87       SAPS     H5R      HEL1     0.150000       1.00800           0
      9945 MEMB     87       SAPS     C26      CEL1    -0.150000       12.0110           0
      9946 MEMB     87       SAPS     H6R      HEL1     0.150000       1.00800           0
      9947 MEMB     87       SAPS     C27      CTL2    -0.180000       12.0110           0
      9948 MEMB     87       SAPS     H7R      HAL2     0.900000E-01   1.00800           0
      9949 MEMB     87       SAPS     H7S      HAL2     0.900000E-01   1.00800           0
      9950 MEMB     87       SAPS     C28      CEL1    -0.150000       12.0110           0
      9951 MEMB     87       SAPS     H8R      HEL1     0.150000       1.00800           0
      9952 MEMB     87       SAPS     C29      CEL1    -0.150000       12.0110           0
      9953 MEMB     87       SAPS     H9R      HEL1     0.150000       1.00800           0
      9954 MEMB     87       SAPS     C210     CTL2    -0.180000       12.0110           0
      9955 MEMB     87       SAPS     H10R     HAL2     0.900000E-01   1.00800           0
      9956 MEMB     87       SAPS     H10S     HAL2     0.900000E-01   1.00800           0
      9957 MEMB     87       SAPS     C211     CEL1    -0.150000       12.0110           0
      9958 MEMB     87       SAPS     H11R     HEL1     0.150000       1.00800           0
      9959 MEMB     87       SAPS     C212     CEL1    -0.150000       12.0110           0
      9960 MEMB     87       SAPS     H12R     HEL1     0.150000       1.00800           0
      9961 MEMB     87       SAPS     C213     CTL2    -0.180000       12.0110           0
      9962 MEMB     87       SAPS     H13R     HAL2     0.900000E-01   1.00800           0
      9963 MEMB     87       SAPS     H13S     HAL2     0.900000E-01   1.00800           0
      9964 MEMB     87       SAPS     C214     CEL1    -0.150000       12.0110           0
      9965 MEMB     87       SAPS     H14R     HEL1     0.150000       1.00800           0
      9966 MEMB     87       SAPS     C215     CEL1    -0.150000       12.0110           0
      9967 MEMB     87       SAPS     H15R     HEL1     0.150000       1.00800           0
      9968 MEMB     87       SAPS     C216     CTL2    -0.180000       12.0110           0
      9969 MEMB     87       SAPS     H16R     HAL2     0.900000E-01   1.00800           0
      9970 MEMB     87       SAPS     H16S     HAL2     0.900000E-01   1.00800           0
      9971 MEMB     87       SAPS     C217     CTL2    -0.180000       12.0110           0
      9972 MEMB     87       SAPS     H17R     HAL2     0.900000E-01   1.00800           0
      9973 MEMB     87       SAPS     H17S     HAL2     0.900000E-01   1.00800           0
      9974 MEMB     87       SAPS     C218     CTL2    -0.180000       12.0110           0
      9975 MEMB     87       SAPS     H18R     HAL2     0.900000E-01   1.00800           0
      9976 MEMB     87       SAPS     H18S     HAL2     0.900000E-01   1.00800           0
      9977 MEMB     87       SAPS     C219     CTL2    -0.180000       12.0110           0
      9978 MEMB     87       SAPS     H19R     HAL2     0.900000E-01   1.00800           0
      9979 MEMB     87       SAPS     H19S     HAL2     0.900000E-01   1.00800           0
      9980 MEMB     87       SAPS     C220     CTL3    -0.270000       12.0110           0
      9981 MEMB     87       SAPS     H20R     HAL3     0.900000E-01   1.00800           0
      9982 MEMB     87       SAPS     H20S     HAL3     0.900000E-01   1.00800           0
      9983 MEMB     87       SAPS     H20T     HAL3     0.900000E-01   1.00800           0
      9984 MEMB     87       SAPS     C33      CTL2    -0.180000       12.0110           0
      9985 MEMB     87       SAPS     H3X      HAL2     0.900000E-01   1.00800           0
      9986 MEMB     87       SAPS     H3Y      HAL2     0.900000E-01   1.00800           0
      9987 MEMB     87       SAPS     C34      CTL2    -0.180000       12.0110           0
      9988 MEMB     87       SAPS     H4X      HAL2     0.900000E-01   1.00800           0
      9989 MEMB     87       SAPS     H4Y      HAL2     0.900000E-01   1.00800           0
      9990 MEMB     87       SAPS     C35      CTL2    -0.180000       12.0110           0
      9991 MEMB     87       SAPS     H5X      HAL2     0.900000E-01   1.00800           0
      9992 MEMB     87       SAPS     H5Y      HAL2     0.900000E-01   1.00800           0
      9993 MEMB     87       SAPS     C36      CTL2    -0.180000       12.0110           0
      9994 MEMB     87       SAPS     H6X      HAL2     0.900000E-01   1.00800           0
      9995 MEMB     87       SAPS     H6Y      HAL2     0.900000E-01   1.00800           0
      9996 MEMB     87       SAPS     C37      CTL2    -0.180000       12.0110           0
      9997 MEMB     87       SAPS     H7X      HAL2     0.900000E-01   1.00800           0
      9998 MEMB     87       SAPS     H7Y      HAL2     0.900000E-01   1.00800           0
      9999 MEMB     87       SAPS     C38      CTL2    -0.180000       12.0110           0
     10000 MEMB     87       SAPS     H8X      HAL2     0.900000E-01   1.00800           0
     10001 MEMB     87       SAPS     H8Y      HAL2     0.900000E-01   1.00800           0
     10002 MEMB     87       SAPS     C39      CTL2    -0.180000       12.0110           0
     10003 MEMB     87       SAPS     H9X      HAL2     0.900000E-01   1.00800           0
     10004 MEMB     87       SAPS     H9Y      HAL2     0.900000E-01   1.00800           0
     10005 MEMB     87       SAPS     C310     CTL2    -0.180000       12.0110           0
     10006 MEMB     87       SAPS     H10X     HAL2     0.900000E-01   1.00800           0
     10007 MEMB     87       SAPS     H10Y     HAL2     0.900000E-01   1.00800           0
     10008 MEMB     87       SAPS     C311     CTL2    -0.180000       12.0110           0
     10009 MEMB     87       SAPS     H11X     HAL2     0.900000E-01   1.00800           0
     10010 MEMB     87       SAPS     H11Y     HAL2     0.900000E-01   1.00800           0
     10011 MEMB     87       SAPS     C312     CTL2    -0.180000       12.0110           0
     10012 MEMB     87       SAPS     H12X     HAL2     0.900000E-01   1.00800           0
     10013 MEMB     87       SAPS     H12Y     HAL2     0.900000E-01   1.00800           0
     10014 MEMB     87       SAPS     C313     CTL2    -0.180000       12.0110           0
     10015 MEMB     87       SAPS     H13X     HAL2     0.900000E-01   1.00800           0
     10016 MEMB     87       SAPS     H13Y     HAL2     0.900000E-01   1.00800           0
     10017 MEMB     87       SAPS     C314     CTL2    -0.180000       12.0110           0
     10018 MEMB     87       SAPS     H14X     HAL2     0.900000E-01   1.00800           0
     10019 MEMB     87       SAPS     H14Y     HAL2     0.900000E-01   1.00800           0
     10020 MEMB     87       SAPS     C315     CTL2    -0.180000       12.0110           0
     10021 MEMB     87       SAPS     H15X     HAL2     0.900000E-01   1.00800           0
     10022 MEMB     87       SAPS     H15Y     HAL2     0.900000E-01   1.00800           0
     10023 MEMB     87       SAPS     C316     CTL2    -0.180000       12.0110           0
     10024 MEMB     87       SAPS     H16X     HAL2     0.900000E-01   1.00800           0
     10025 MEMB     87       SAPS     H16Y     HAL2     0.900000E-01   1.00800           0
     10026 MEMB     87       SAPS     C317     CTL2    -0.180000       12.0110           0
     10027 MEMB     87       SAPS     H17X     HAL2     0.900000E-01   1.00800           0
     10028 MEMB     87       SAPS     H17Y     HAL2     0.900000E-01   1.00800           0
     10029 MEMB     87       SAPS     C318     CTL3    -0.270000       12.0110           0
     10030 MEMB     87       SAPS     H18X     HAL3     0.900000E-01   1.00800           0
     10031 MEMB     87       SAPS     H18Y     HAL3     0.900000E-01   1.00800           0
     10032 MEMB     87       SAPS     H18Z     HAL3     0.900000E-01   1.00800           0
     10033 MEMB     88       CHL1     C3       CRL1     0.140000       12.0110           0
     10034 MEMB     88       CHL1     H3       HGA1     0.900000E-01   1.00800           0
     10035 MEMB     88       CHL1     O3       OHL     -0.660000       15.9994           0
     10036 MEMB     88       CHL1     H3'      HOL      0.430000       1.00800           0
     10037 MEMB     88       CHL1     C4       CRL2    -0.180000       12.0110           0
     10038 MEMB     88       CHL1     H4A      HGA2     0.900000E-01   1.00800           0
     10039 MEMB     88       CHL1     H4B      HGA2     0.900000E-01   1.00800           0
     10040 MEMB     88       CHL1     C5       CEL1      0.00000       12.0110           0
     10041 MEMB     88       CHL1     C6       CEL1    -0.150000       12.0110           0
     10042 MEMB     88       CHL1     H6       HEL1     0.150000       1.00800           0
     10043 MEMB     88       CHL1     C7       CRL2    -0.180000       12.0110           0
     10044 MEMB     88       CHL1     H7A      HGA2     0.900000E-01   1.00800           0
     10045 MEMB     88       CHL1     H7B      HGA2     0.900000E-01   1.00800           0
     10046 MEMB     88       CHL1     C8       CRL1    -0.900000E-01   12.0110           0
     10047 MEMB     88       CHL1     H8       HGA1     0.900000E-01   1.00800           0
     10048 MEMB     88       CHL1     C14      CRL1    -0.900000E-01   12.0110           0
     10049 MEMB     88       CHL1     H14      HGA1     0.900000E-01   1.00800           0
     10050 MEMB     88       CHL1     C15      CRL2    -0.180000       12.0110           0
     10051 MEMB     88       CHL1     H15A     HGA2     0.900000E-01   1.00800           0
     10052 MEMB     88       CHL1     H15B     HGA2     0.900000E-01   1.00800           0
     10053 MEMB     88       CHL1     C16      CRL2    -0.180000       12.0110           0
     10054 MEMB     88       CHL1     H16A     HGA2     0.900000E-01   1.00800           0
     10055 MEMB     88       CHL1     H16B     HGA2     0.900000E-01   1.00800           0
     10056 MEMB     88       CHL1     C17      CRL1    -0.900000E-01   12.0110           0
     10057 MEMB     88       CHL1     H17      HGA1     0.900000E-01   1.00800           0
     10058 MEMB     88       CHL1     C13      CRL1      0.00000       12.0110           0
     10059 MEMB     88       CHL1     C18      CTL3    -0.270000       12.0110           0
     10060 MEMB     88       CHL1     H18A     HAL3     0.900000E-01   1.00800           0
     10061 MEMB     88       CHL1     H18B     HAL3     0.900000E-01   1.00800           0
     10062 MEMB     88       CHL1     H18C     HAL3     0.900000E-01   1.00800           0
     10063 MEMB     88       CHL1     C12      CRL2    -0.180000       12.0110           0
     10064 MEMB     88       CHL1     H12A     HGA2     0.900000E-01   1.00800           0
     10065 MEMB     88       CHL1     H12B     HGA2     0.900000E-01   1.00800           0
     10066 MEMB     88       CHL1     C11      CRL2    -0.180000       12.0110           0
     10067 MEMB     88       CHL1     H11A     HGA2     0.900000E-01   1.00800           0
     10068 MEMB     88       CHL1     H11B     HGA2     0.900000E-01   1.00800           0
     10069 MEMB     88       CHL1     C9       CRL1    -0.900000E-01   12.0110           0
     10070 MEMB     88       CHL1     H9       HGA1     0.900000E-01   1.00800           0
     10071 MEMB     88       CHL1     C10      CRL1      0.00000       12.0110           0
     10072 MEMB     88       CHL1     C19      CTL3    -0.270000       12.0110           0
     10073 MEMB     88       CHL1     H19A     HAL3     0.900000E-01   1.00800           0
     10074 MEMB     88       CHL1     H19B     HAL3     0.900000E-01   1.00800           0
     10075 MEMB     88       CHL1     H19C     HAL3     0.900000E-01   1.00800           0
     10076 MEMB     88       CHL1     C1       CRL2    -0.180000       12.0110           0
     10077 MEMB     88       CHL1     H1A      HGA2     0.900000E-01   1.00800           0
     10078 MEMB     88       CHL1     H1B      HGA2     0.900000E-01   1.00800           0
     10079 MEMB     88       CHL1     C2       CRL2    -0.180000       12.0110           0
     10080 MEMB     88       CHL1     H2A      HGA2     0.900000E-01   1.00800           0
     10081 MEMB     88       CHL1     H2B      HGA2     0.900000E-01   1.00800           0
     10082 MEMB     88       CHL1     C20      CTL1    -0.900000E-01   12.0110           0
     10083 MEMB     88       CHL1     H20      HAL1     0.900000E-01   1.00800           0
     10084 MEMB     88       CHL1     C21      CTL3    -0.270000       12.0110           0
     10085 MEMB     88       CHL1     H21A     HAL3     0.900000E-01   1.00800           0
     10086 MEMB     88       CHL1     H21B     HAL3     0.900000E-01   1.00800           0
     10087 MEMB     88       CHL1     H21C     HAL3     0.900000E-01   1.00800           0
     10088 MEMB     88       CHL1     C22      CTL2    -0.180000       12.0110           0
     10089 MEMB     88       CHL1     H22A     HAL2     0.900000E-01   1.00800           0
     10090 MEMB     88       CHL1     H22B     HAL2     0.900000E-01   1.00800           0
     10091 MEMB     88       CHL1     C23      CTL2    -0.180000       12.0110           0
     10092 MEMB     88       CHL1     H23A     HAL2     0.900000E-01   1.00800           0
     10093 MEMB     88       CHL1     H23B     HAL2     0.900000E-01   1.00800           0
     10094 MEMB     88       CHL1     C24      CTL2    -0.180000       12.0110           0
     10095 MEMB     88       CHL1     H24A     HAL2     0.900000E-01   1.00800           0
     10096 MEMB     88       CHL1     H24B     HAL2     0.900000E-01   1.00800           0
     10097 MEMB     88       CHL1     C25      CTL1    -0.900000E-01   12.0110           0
     10098 MEMB     88       CHL1     H25      HAL1     0.900000E-01   1.00800           0
     10099 MEMB     88       CHL1     C26      CTL3    -0.270000       12.0110           0
     10100 MEMB     88       CHL1     H26A     HAL3     0.900000E-01   1.00800           0
     10101 MEMB     88       CHL1     H26B     HAL3     0.900000E-01   1.00800           0
     10102 MEMB     88       CHL1     H26C     HAL3     0.900000E-01   1.00800           0
     10103 MEMB     88       CHL1     C27      CTL3    -0.270000       12.0110           0
     10104 MEMB     88       CHL1     H27A     HAL3     0.900000E-01   1.00800           0
     10105 MEMB     88       CHL1     H27B     HAL3     0.900000E-01   1.00800           0
     10106 MEMB     88       CHL1     H27C     HAL3     0.900000E-01   1.00800           0
     10107 MEMB     89       OSM      N        NTL     -0.600000       14.0070           0
     10108 MEMB     89       OSM      C15      CTL5    -0.350000       12.0110           0
     10109 MEMB     89       OSM      H15A     HL       0.250000       1.00800           0
     10110 MEMB     89       OSM      H15B     HL       0.250000       1.00800           0
     10111 MEMB     89       OSM      H15C     HL       0.250000       1.00800           0
     10112 MEMB     89       OSM      C14      CTL5    -0.350000       12.0110           0
     10113 MEMB     89       OSM      H14A     HL       0.250000       1.00800           0
     10114 MEMB     89       OSM      H14B     HL       0.250000       1.00800           0
     10115 MEMB     89       OSM      H14C     HL       0.250000       1.00800           0
     10116 MEMB     89       OSM      C13      CTL5    -0.350000       12.0110           0
     10117 MEMB     89       OSM      H13A     HL       0.250000       1.00800           0
     10118 MEMB     89       OSM      H13B     HL       0.250000       1.00800           0
     10119 MEMB     89       OSM      H13C     HL       0.250000       1.00800           0
     10120 MEMB     89       OSM      C12      CTL2    -0.100000       12.0110           0
     10121 MEMB     89       OSM      H12A     HL       0.250000       1.00800           0
     10122 MEMB     89       OSM      H12B     HL       0.250000       1.00800           0
     10123 MEMB     89       OSM      C11      CTL2    -0.800000E-01   12.0110           0
     10124 MEMB     89       OSM      H11A     HAL2     0.900000E-01   1.00800           0
     10125 MEMB     89       OSM      H11B     HAL2     0.900000E-01   1.00800           0
     10126 MEMB     89       OSM      P        PL        1.50000       30.9740           0
     10127 MEMB     89       OSM      O13      O2L     -0.780000       15.9994           0
     10128 MEMB     89       OSM      O14      O2L     -0.780000       15.9994           0
     10129 MEMB     89       OSM      O11      OSLP    -0.570000       15.9994           0
     10130 MEMB     89       OSM      O12      OSLP    -0.570000       15.9994           0
     10131 MEMB     89       OSM      C1S      CTL2    -0.800000E-01   12.0110           0
     10132 MEMB     89       OSM      H1S      HAL2     0.900000E-01   1.00800           0
     10133 MEMB     89       OSM      H1T      HAL2     0.900000E-01   1.00800           0
     10134 MEMB     89       OSM      NF       NHL     -0.700000       14.0070           0
     10135 MEMB     89       OSM      HNF      H        0.350000       1.00800           0
     10136 MEMB     89       OSM      C2S      CTL1     0.300000       12.0110           0
     10137 MEMB     89       OSM      H2S      HAL1     0.500000E-01   1.00800           0
     10138 MEMB     89       OSM      C3S      CTO1     0.500000       12.0110           0
     10139 MEMB     89       OSM      H3S      HAL1    -0.110000       1.00800           0
     10140 MEMB     89       OSM      O3       OHL     -0.690000       15.9994           0
     10141 MEMB     89       OSM      HO3      HOL      0.300000       1.00800           0
     10142 MEMB     89       OSM      C4S      CEL3    -0.150000       12.0110           0
     10143 MEMB     89       OSM      H4S      HEL1     0.150000       1.00800           0
     10144 MEMB     89       OSM      C5S      CEL3    -0.150000       12.0110           0
     10145 MEMB     89       OSM      H5S      HEL1     0.150000       1.00800           0
     10146 MEMB     89       OSM      C6S      CTL2    -0.180000       12.0110           0
     10147 MEMB     89       OSM      H6S      HAL2     0.900000E-01   1.00800           0
     10148 MEMB     89       OSM      H6T      HAL2     0.900000E-01   1.00800           0
     10149 MEMB     89       OSM      C7S      CTL2    -0.180000       12.0110           0
     10150 MEMB     89       OSM      H7S      HAL2     0.900000E-01   1.00800           0
     10151 MEMB     89       OSM      H7T      HAL2     0.900000E-01   1.00800           0
     10152 MEMB     89       OSM      C8S      CTL2    -0.180000       12.0110           0
     10153 MEMB     89       OSM      H8S      HAL2     0.900000E-01   1.00800           0
     10154 MEMB     89       OSM      H8T      HAL2     0.900000E-01   1.00800           0
     10155 MEMB     89       OSM      C9S      CTL2    -0.180000       12.0110           0
     10156 MEMB     89       OSM      H9S      HAL2     0.900000E-01   1.00800           0
     10157 MEMB     89       OSM      H9T      HAL2     0.900000E-01   1.00800           0
     10158 MEMB     89       OSM      C10S     CTL2    -0.180000       12.0110           0
     10159 MEMB     89       OSM      H10S     HAL2     0.900000E-01   1.00800           0
     10160 MEMB     89       OSM      H10T     HAL2     0.900000E-01   1.00800           0
     10161 MEMB     89       OSM      C11S     CTL2    -0.180000       12.0110           0
     10162 MEMB     89       OSM      H11S     HAL2     0.900000E-01   1.00800           0
     10163 MEMB     89       OSM      H11T     HAL2     0.900000E-01   1.00800           0
     10164 MEMB     89       OSM      C12S     CTL2    -0.180000       12.0110           0
     10165 MEMB     89       OSM      H12S     HAL2     0.900000E-01   1.00800           0
     10166 MEMB     89       OSM      H12T     HAL2     0.900000E-01   1.00800           0
     10167 MEMB     89       OSM      C13S     CTL2    -0.180000       12.0110           0
     10168 MEMB     89       OSM      H13S     HAL2     0.900000E-01   1.00800           0
     10169 MEMB     89       OSM      H13T     HAL2     0.900000E-01   1.00800           0
     10170 MEMB     89       OSM      C14S     CTL2    -0.180000       12.0110           0
     10171 MEMB     89       OSM      H14S     HAL2     0.900000E-01   1.00800           0
     10172 MEMB     89       OSM      H14T     HAL2     0.900000E-01   1.00800           0
     10173 MEMB     89       OSM      C15S     CTL2    -0.180000       12.0110           0
     10174 MEMB     89       OSM      H15S     HAL2     0.900000E-01   1.00800           0
     10175 MEMB     89       OSM      H15T     HAL2     0.900000E-01   1.00800           0
     10176 MEMB     89       OSM      C16S     CTL2    -0.180000       12.0110           0
     10177 MEMB     89       OSM      H16S     HAL2     0.900000E-01   1.00800           0
     10178 MEMB     89       OSM      H16T     HAL2     0.900000E-01   1.00800           0
     10179 MEMB     89       OSM      C17S     CTL2    -0.180000       12.0110           0
     10180 MEMB     89       OSM      H17S     HAL2     0.900000E-01   1.00800           0
     10181 MEMB     89       OSM      H17T     HAL2     0.900000E-01   1.00800           0
     10182 MEMB     89       OSM      C18S     CTL3    -0.270000       12.0110           0
     10183 MEMB     89       OSM      H18S     HAL3     0.900000E-01   1.00800           0
     10184 MEMB     89       OSM      H18T     HAL3     0.900000E-01   1.00800           0
     10185 MEMB     89       OSM      H18U     HAL3     0.900000E-01   1.00800           0
     10186 MEMB     89       OSM      C1F      C        0.550000       12.0110           0
     10187 MEMB     89       OSM      OF       O       -0.600000       15.9994           0
     10188 MEMB     89       OSM      C2F      CTL2    -0.700000E-01   12.0110           0
     10189 MEMB     89       OSM      H2F      HAL2     0.600000E-01   1.00800           0
     10190 MEMB     89       OSM      H2G      HAL2     0.600000E-01   1.00800           0
     10191 MEMB     89       OSM      C3F      CTL2    -0.180000       12.0110           0
     10192 MEMB     89       OSM      H3F      HAL2     0.900000E-01   1.00800           0
     10193 MEMB     89       OSM      H3G      HAL2     0.900000E-01   1.00800           0
     10194 MEMB     89       OSM      C4F      CTL2    -0.180000       12.0110           0
     10195 MEMB     89       OSM      H4F      HAL2     0.900000E-01   1.00800           0
     10196 MEMB     89       OSM      H4G      HAL2     0.900000E-01   1.00800           0
     10197 MEMB     89       OSM      C5F      CTL2    -0.180000       12.0110           0
     10198 MEMB     89       OSM      H5F      HAL2     0.900000E-01   1.00800           0
     10199 MEMB     89       OSM      H5G      HAL2     0.900000E-01   1.00800           0
     10200 MEMB     89       OSM      C6F      CTL2    -0.180000       12.0110           0
     10201 MEMB     89       OSM      H6F      HAL2     0.900000E-01   1.00800           0
     10202 MEMB     89       OSM      H6G      HAL2     0.900000E-01   1.00800           0
     10203 MEMB     89       OSM      C7F      CTL2    -0.180000       12.0110           0
     10204 MEMB     89       OSM      H7F      HAL2     0.900000E-01   1.00800           0
     10205 MEMB     89       OSM      H7G      HAL2     0.900000E-01   1.00800           0
     10206 MEMB     89       OSM      C8F      CTL2    -0.180000       12.0110           0
     10207 MEMB     89       OSM      H8F      HAL2     0.900000E-01   1.00800           0
     10208 MEMB     89       OSM      H8G      HAL2     0.900000E-01   1.00800           0
     10209 MEMB     89       OSM      C9F      CEL1    -0.150000       12.0110           0
     10210 MEMB     89       OSM      H9F      HEL1     0.150000       1.00800           0
     10211 MEMB     89       OSM      C10F     CEL1    -0.150000       12.0110           0
     10212 MEMB     89       OSM      H10F     HEL1     0.150000       1.00800           0
     10213 MEMB     89       OSM      C11F     CTL2    -0.180000       12.0110           0
     10214 MEMB     89       OSM      H11F     HAL2     0.900000E-01   1.00800           0
     10215 MEMB     89       OSM      H11G     HAL2     0.900000E-01   1.00800           0
     10216 MEMB     89       OSM      C12F     CTL2    -0.180000       12.0110           0
     10217 MEMB     89       OSM      H12F     HAL2     0.900000E-01   1.00800           0
     10218 MEMB     89       OSM      H12G     HAL2     0.900000E-01   1.00800           0
     10219 MEMB     89       OSM      C13F     CTL2    -0.180000       12.0110           0
     10220 MEMB     89       OSM      H13F     HAL2     0.900000E-01   1.00800           0
     10221 MEMB     89       OSM      H13G     HAL2     0.900000E-01   1.00800           0
     10222 MEMB     89       OSM      C14F     CTL2    -0.180000       12.0110           0
     10223 MEMB     89       OSM      H14F     HAL2     0.900000E-01   1.00800           0
     10224 MEMB     89       OSM      H14G     HAL2     0.900000E-01   1.00800           0
     10225 MEMB     89       OSM      C15F     CTL2    -0.180000       12.0110           0
     10226 MEMB     89       OSM      H15F     HAL2     0.900000E-01   1.00800           0
     10227 MEMB     89       OSM      H15G     HAL2     0.900000E-01   1.00800           0
     10228 MEMB     89       OSM      C16F     CTL2    -0.180000       12.0110           0
     10229 MEMB     89       OSM      H16F     HAL2     0.900000E-01   1.00800           0
     10230 MEMB     89       OSM      H16G     HAL2     0.900000E-01   1.00800           0
     10231 MEMB     89       OSM      C17F     CTL2    -0.180000       12.0110           0
     10232 MEMB     89       OSM      H17F     HAL2     0.900000E-01   1.00800           0
     10233 MEMB     89       OSM      H17G     HAL2     0.900000E-01   1.00800           0
     10234 MEMB     89       OSM      C18F     CTL3    -0.270000       12.0110           0
     10235 MEMB     89       OSM      H18F     HAL3     0.900000E-01   1.00800           0
     10236 MEMB     89       OSM      H18G     HAL3     0.900000E-01   1.00800           0
     10237 MEMB     89       OSM      H18H     HAL3     0.900000E-01   1.00800           0
     10238 MEMB     90       SAPE     N        NH3L    -0.300000       14.0070           0
     10239 MEMB     90       SAPE     HN1      HCL      0.330000       1.00800           0
     10240 MEMB     90       SAPE     HN2      HCL      0.330000       1.00800           0
     10241 MEMB     90       SAPE     HN3      HCL      0.330000       1.00800           0
     10242 MEMB     90       SAPE     C12      CTL2     0.130000       12.0110           0
     10243 MEMB     90       SAPE     H12A     HAL2     0.900000E-01   1.00800           0
     10244 MEMB     90       SAPE     H12B     HAL2     0.900000E-01   1.00800           0
     10245 MEMB     90       SAPE     C11      CTL2    -0.800000E-01   12.0110           0
     10246 MEMB     90       SAPE     H11A     HAL2     0.900000E-01   1.00800           0
     10247 MEMB     90       SAPE     H11B     HAL2     0.900000E-01   1.00800           0
     10248 MEMB     90       SAPE     P        PL        1.50000       30.9740           0
     10249 MEMB     90       SAPE     O13      O2L     -0.780000       15.9994           0
     10250 MEMB     90       SAPE     O14      O2L     -0.780000       15.9994           0
     10251 MEMB     90       SAPE     O12      OSLP    -0.570000       15.9994           0
     10252 MEMB     90       SAPE     O11      OSLP    -0.570000       15.9994           0
     10253 MEMB     90       SAPE     C1       CTL2    -0.800000E-01   12.0110           0
     10254 MEMB     90       SAPE     HA       HAL2     0.900000E-01   1.00800           0
     10255 MEMB     90       SAPE     HB       HAL2     0.900000E-01   1.00800           0
     10256 MEMB     90       SAPE     C2       CTL1     0.170000       12.0110           0
     10257 MEMB     90       SAPE     HS       HAL1     0.900000E-01   1.00800           0
     10258 MEMB     90       SAPE     O21      OSL     -0.490000       15.9994           0
     10259 MEMB     90       SAPE     C21      CL       0.900000       12.0110           0
     10260 MEMB     90       SAPE     O22      OBL     -0.630000       15.9994           0
     10261 MEMB     90       SAPE     C22      CTL2    -0.220000       12.0110           0
     10262 MEMB     90       SAPE     H2R      HAL2     0.900000E-01   1.00800           0
     10263 MEMB     90       SAPE     H2S      HAL2     0.900000E-01   1.00800           0
     10264 MEMB     90       SAPE     C3       CTL2     0.800000E-01   12.0110           0
     10265 MEMB     90       SAPE     HX       HAL2     0.900000E-01   1.00800           0
     10266 MEMB     90       SAPE     HY       HAL2     0.900000E-01   1.00800           0
     10267 MEMB     90       SAPE     O31      OSL     -0.490000       15.9994           0
     10268 MEMB     90       SAPE     C31      CL       0.900000       12.0110           0
     10269 MEMB     90       SAPE     O32      OBL     -0.630000       15.9994           0
     10270 MEMB     90       SAPE     C32      CTL2    -0.220000       12.0110           0
     10271 MEMB     90       SAPE     H2X      HAL2     0.900000E-01   1.00800           0
     10272 MEMB     90       SAPE     H2Y      HAL2     0.900000E-01   1.00800           0
     10273 MEMB     90       SAPE     C23      CTL2    -0.180000       12.0110           0
     10274 MEMB     90       SAPE     H3R      HAL2     0.900000E-01   1.00800           0
     10275 MEMB     90       SAPE     H3S      HAL2     0.900000E-01   1.00800           0
     10276 MEMB     90       SAPE     C24      CTL2    -0.180000       12.0110           0
     10277 MEMB     90       SAPE     H4R      HAL2     0.900000E-01   1.00800           0
     10278 MEMB     90       SAPE     H4S      HAL2     0.900000E-01   1.00800           0
     10279 MEMB     90       SAPE     C25      CEL1    -0.150000       12.0110           0
     10280 MEMB     90       SAPE     H5R      HEL1     0.150000       1.00800           0
     10281 MEMB     90       SAPE     C26      CEL1    -0.150000       12.0110           0
     10282 MEMB     90       SAPE     H6R      HEL1     0.150000       1.00800           0
     10283 MEMB     90       SAPE     C27      CTL2    -0.180000       12.0110           0
     10284 MEMB     90       SAPE     H7R      HAL2     0.900000E-01   1.00800           0
     10285 MEMB     90       SAPE     H7S      HAL2     0.900000E-01   1.00800           0
     10286 MEMB     90       SAPE     C28      CEL1    -0.150000       12.0110           0
     10287 MEMB     90       SAPE     H8R      HEL1     0.150000       1.00800           0
     10288 MEMB     90       SAPE     C29      CEL1    -0.150000       12.0110           0
     10289 MEMB     90       SAPE     H9R      HEL1     0.150000       1.00800           0
     10290 MEMB     90       SAPE     C210     CTL2    -0.180000       12.0110           0
     10291 MEMB     90       SAPE     H10R     HAL2     0.900000E-01   1.00800           0
     10292 MEMB     90       SAPE     H10S     HAL2     0.900000E-01   1.00800           0
     10293 MEMB     90       SAPE     C211     CEL1    -0.150000       12.0110           0
     10294 MEMB     90       SAPE     H11R     HEL1     0.150000       1.00800           0
     10295 MEMB     90       SAPE     C212     CEL1    -0.150000       12.0110           0
     10296 MEMB     90       SAPE     H12R     HEL1     0.150000       1.00800           0
     10297 MEMB     90       SAPE     C213     CTL2    -0.180000       12.0110           0
     10298 MEMB     90       SAPE     H13R     HAL2     0.900000E-01   1.00800           0
     10299 MEMB     90       SAPE     H13S     HAL2     0.900000E-01   1.00800           0
     10300 MEMB     90       SAPE     C214     CEL1    -0.150000       12.0110           0
     10301 MEMB     90       SAPE     H14R     HEL1     0.150000       1.00800           0
     10302 MEMB     90       SAPE     C215     CEL1    -0.150000       12.0110           0
     10303 MEMB     90       SAPE     H15R     HEL1     0.150000       1.00800           0
     10304 MEMB     90       SAPE     C216     CTL2    -0.180000       12.0110           0
     10305 MEMB     90       SAPE     H16R     HAL2     0.900000E-01   1.00800           0
     10306 MEMB     90       SAPE     H16S     HAL2     0.900000E-01   1.00800           0
     10307 MEMB     90       SAPE     C217     CTL2    -0.180000       12.0110           0
     10308 MEMB     90       SAPE     H17R     HAL2     0.900000E-01   1.00800           0
     10309 MEMB     90       SAPE     H17S     HAL2     0.900000E-01   1.00800           0
     10310 MEMB     90       SAPE     C218     CTL2    -0.180000       12.0110           0
     10311 MEMB     90       SAPE     H18R     HAL2     0.900000E-01   1.00800           0
     10312 MEMB     90       SAPE     H18S     HAL2     0.900000E-01   1.00800           0
     10313 MEMB     90       SAPE     C219     CTL2    -0.180000       12.0110           0
     10314 MEMB     90       SAPE     H19R     HAL2     0.900000E-01   1.00800           0
     10315 MEMB     90       SAPE     H19S     HAL2     0.900000E-01   1.00800           0
     10316 MEMB     90       SAPE     C220     CTL3    -0.270000       12.0110           0
     10317 MEMB     90       SAPE     H20R     HAL3     0.900000E-01   1.00800           0
     10318 MEMB     90       SAPE     H20S     HAL3     0.900000E-01   1.00800           0
     10319 MEMB     90       SAPE     H20T     HAL3     0.900000E-01   1.00800           0
     10320 MEMB     90       SAPE     C33      CTL2    -0.180000       12.0110           0
     10321 MEMB     90       SAPE     H3X      HAL2     0.900000E-01   1.00800           0
     10322 MEMB     90       SAPE     H3Y      HAL2     0.900000E-01   1.00800           0
     10323 MEMB     90       SAPE     C34      CTL2    -0.180000       12.0110           0
     10324 MEMB     90       SAPE     H4X      HAL2     0.900000E-01   1.00800           0
     10325 MEMB     90       SAPE     H4Y      HAL2     0.900000E-01   1.00800           0
     10326 MEMB     90       SAPE     C35      CTL2    -0.180000       12.0110           0
     10327 MEMB     90       SAPE     H5X      HAL2     0.900000E-01   1.00800           0
     10328 MEMB     90       SAPE     H5Y      HAL2     0.900000E-01   1.00800           0
     10329 MEMB     90       SAPE     C36      CTL2    -0.180000       12.0110           0
     10330 MEMB     90       SAPE     H6X      HAL2     0.900000E-01   1.00800           0
     10331 MEMB     90       SAPE     H6Y      HAL2     0.900000E-01   1.00800           0
     10332 MEMB     90       SAPE     C37      CTL2    -0.180000       12.0110           0
     10333 MEMB     90       SAPE     H7X      HAL2     0.900000E-01   1.00800           0
     10334 MEMB     90       SAPE     H7Y      HAL2     0.900000E-01   1.00800           0
     10335 MEMB     90       SAPE     C38      CTL2    -0.180000       12.0110           0
     10336 MEMB     90       SAPE     H8X      HAL2     0.900000E-01   1.00800           0
     10337 MEMB     90       SAPE     H8Y      HAL2     0.900000E-01   1.00800           0
     10338 MEMB     90       SAPE     C39      CTL2    -0.180000       12.0110           0
     10339 MEMB     90       SAPE     H9X      HAL2     0.900000E-01   1.00800           0
     10340 MEMB     90       SAPE     H9Y      HAL2     0.900000E-01   1.00800           0
     10341 MEMB     90       SAPE     C310     CTL2    -0.180000       12.0110           0
     10342 MEMB     90       SAPE     H10X     HAL2     0.900000E-01   1.00800           0
     10343 MEMB     90       SAPE     H10Y     HAL2     0.900000E-01   1.00800           0
     10344 MEMB     90       SAPE     C311     CTL2    -0.180000       12.0110           0
     10345 MEMB     90       SAPE     H11X     HAL2     0.900000E-01   1.00800           0
     10346 MEMB     90       SAPE     H11Y     HAL2     0.900000E-01   1.00800           0
     10347 MEMB     90       SAPE     C312     CTL2    -0.180000       12.0110           0
     10348 MEMB     90       SAPE     H12X     HAL2     0.900000E-01   1.00800           0
     10349 MEMB     90       SAPE     H12Y     HAL2     0.900000E-01   1.00800           0
     10350 MEMB     90       SAPE     C313     CTL2    -0.180000       12.0110           0
     10351 MEMB     90       SAPE     H13X     HAL2     0.900000E-01   1.00800           0
     10352 MEMB     90       SAPE     H13Y     HAL2     0.900000E-01   1.00800           0
     10353 MEMB     90       SAPE     C314     CTL2    -0.180000       12.0110           0
     10354 MEMB     90       SAPE     H14X     HAL2     0.900000E-01   1.00800           0
     10355 MEMB     90       SAPE     H14Y     HAL2     0.900000E-01   1.00800           0
     10356 MEMB     90       SAPE     C315     CTL2    -0.180000       12.0110           0
     10357 MEMB     90       SAPE     H15X     HAL2     0.900000E-01   1.00800           0
     10358 MEMB     90       SAPE     H15Y     HAL2     0.900000E-01   1.00800           0
     10359 MEMB     90       SAPE     C316     CTL2    -0.180000       12.0110           0
     10360 MEMB     90       SAPE     H16X     HAL2     0.900000E-01   1.00800           0
     10361 MEMB     90       SAPE     H16Y     HAL2     0.900000E-01   1.00800           0
     10362 MEMB     90       SAPE     C317     CTL2    -0.180000       12.0110           0
     10363 MEMB     90       SAPE     H17X     HAL2     0.900000E-01   1.00800           0
     10364 MEMB     90       SAPE     H17Y     HAL2     0.900000E-01   1.00800           0
     10365 MEMB     90       SAPE     C318     CTL3    -0.270000       12.0110           0
     10366 MEMB     90       SAPE     H18X     HAL3     0.900000E-01   1.00800           0
     10367 MEMB     90       SAPE     H18Y     HAL3     0.900000E-01   1.00800           0
     10368 MEMB     90       SAPE     H18Z     HAL3     0.900000E-01   1.00800           0
     10369 MEMB     91       SOPE     N        NH3L    -0.300000       14.0070           0
     10370 MEMB     91       SOPE     HN1      HCL      0.330000       1.00800           0
     10371 MEMB     91       SOPE     HN2      HCL      0.330000       1.00800           0
     10372 MEMB     91       SOPE     HN3      HCL      0.330000       1.00800           0
     10373 MEMB     91       SOPE     C12      CTL2     0.130000       12.0110           0
     10374 MEMB     91       SOPE     H12A     HAL2     0.900000E-01   1.00800           0
     10375 MEMB     91       SOPE     H12B     HAL2     0.900000E-01   1.00800           0
     10376 MEMB     91       SOPE     C11      CTL2    -0.800000E-01   12.0110           0
     10377 MEMB     91       SOPE     H11A     HAL2     0.900000E-01   1.00800           0
     10378 MEMB     91       SOPE     H11B     HAL2     0.900000E-01   1.00800           0
     10379 MEMB     91       SOPE     P        PL        1.50000       30.9740           0
     10380 MEMB     91       SOPE     O13      O2L     -0.780000       15.9994           0
     10381 MEMB     91       SOPE     O14      O2L     -0.780000       15.9994           0
     10382 MEMB     91       SOPE     O12      OSLP    -0.570000       15.9994           0
     10383 MEMB     91       SOPE     O11      OSLP    -0.570000       15.9994           0
     10384 MEMB     91       SOPE     C1       CTL2    -0.800000E-01   12.0110           0
     10385 MEMB     91       SOPE     HA       HAL2     0.900000E-01   1.00800           0
     10386 MEMB     91       SOPE     HB       HAL2     0.900000E-01   1.00800           0
     10387 MEMB     91       SOPE     C2       CTL1     0.170000       12.0110           0
     10388 MEMB     91       SOPE     HS       HAL1     0.900000E-01   1.00800           0
     10389 MEMB     91       SOPE     O21      OSL     -0.490000       15.9994           0
     10390 MEMB     91       SOPE     C21      CL       0.900000       12.0110           0
     10391 MEMB     91       SOPE     O22      OBL     -0.630000       15.9994           0
     10392 MEMB     91       SOPE     C22      CTL2    -0.220000       12.0110           0
     10393 MEMB     91       SOPE     H2R      HAL2     0.900000E-01   1.00800           0
     10394 MEMB     91       SOPE     H2S      HAL2     0.900000E-01   1.00800           0
     10395 MEMB     91       SOPE     C3       CTL2     0.800000E-01   12.0110           0
     10396 MEMB     91       SOPE     HX       HAL2     0.900000E-01   1.00800           0
     10397 MEMB     91       SOPE     HY       HAL2     0.900000E-01   1.00800           0
     10398 MEMB     91       SOPE     O31      OSL     -0.490000       15.9994           0
     10399 MEMB     91       SOPE     C31      CL       0.900000       12.0110           0
     10400 MEMB     91       SOPE     O32      OBL     -0.630000       15.9994           0
     10401 MEMB     91       SOPE     C32      CTL2    -0.220000       12.0110           0
     10402 MEMB     91       SOPE     H2X      HAL2     0.900000E-01   1.00800           0
     10403 MEMB     91       SOPE     H2Y      HAL2     0.900000E-01   1.00800           0
     10404 MEMB     91       SOPE     C23      CTL2    -0.180000       12.0110           0
     10405 MEMB     91       SOPE     H3R      HAL2     0.900000E-01   1.00800           0
     10406 MEMB     91       SOPE     H3S      HAL2     0.900000E-01   1.00800           0
     10407 MEMB     91       SOPE     C24      CTL2    -0.180000       12.0110           0
     10408 MEMB     91       SOPE     H4R      HAL2     0.900000E-01   1.00800           0
     10409 MEMB     91       SOPE     H4S      HAL2     0.900000E-01   1.00800           0
     10410 MEMB     91       SOPE     C25      CTL2    -0.180000       12.0110           0
     10411 MEMB     91       SOPE     H5R      HAL2     0.900000E-01   1.00800           0
     10412 MEMB     91       SOPE     H5S      HAL2     0.900000E-01   1.00800           0
     10413 MEMB     91       SOPE     C26      CTL2    -0.180000       12.0110           0
     10414 MEMB     91       SOPE     H6R      HAL2     0.900000E-01   1.00800           0
     10415 MEMB     91       SOPE     H6S      HAL2     0.900000E-01   1.00800           0
     10416 MEMB     91       SOPE     C27      CTL2    -0.180000       12.0110           0
     10417 MEMB     91       SOPE     H7R      HAL2     0.900000E-01   1.00800           0
     10418 MEMB     91       SOPE     H7S      HAL2     0.900000E-01   1.00800           0
     10419 MEMB     91       SOPE     C28      CTL2    -0.180000       12.0110           0
     10420 MEMB     91       SOPE     H8R      HAL2     0.900000E-01   1.00800           0
     10421 MEMB     91       SOPE     H8S      HAL2     0.900000E-01   1.00800           0
     10422 MEMB     91       SOPE     C29      CEL1    -0.150000       12.0110           0
     10423 MEMB     91       SOPE     H91      HEL1     0.150000       1.00800           0
     10424 MEMB     91       SOPE     C210     CEL1    -0.150000       12.0110           0
     10425 MEMB     91       SOPE     H101     HEL1     0.150000       1.00800           0
     10426 MEMB     91       SOPE     C211     CTL2    -0.180000       12.0110           0
     10427 MEMB     91       SOPE     H11R     HAL2     0.900000E-01   1.00800           0
     10428 MEMB     91       SOPE     H11S     HAL2     0.900000E-01   1.00800           0
     10429 MEMB     91       SOPE     C212     CTL2    -0.180000       12.0110           0
     10430 MEMB     91       SOPE     H12R     HAL2     0.900000E-01   1.00800           0
     10431 MEMB     91       SOPE     H12S     HAL2     0.900000E-01   1.00800           0
     10432 MEMB     91       SOPE     C213     CTL2    -0.180000       12.0110           0
     10433 MEMB     91       SOPE     H13R     HAL2     0.900000E-01   1.00800           0
     10434 MEMB     91       SOPE     H13S     HAL2     0.900000E-01   1.00800           0
     10435 MEMB     91       SOPE     C214     CTL2    -0.180000       12.0110           0
     10436 MEMB     91       SOPE     H14R     HAL2     0.900000E-01   1.00800           0
     10437 MEMB     91       SOPE     H14S     HAL2     0.900000E-01   1.00800           0
     10438 MEMB     91       SOPE     C215     CTL2    -0.180000       12.0110           0
     10439 MEMB     91       SOPE     H15R     HAL2     0.900000E-01   1.00800           0
     10440 MEMB     91       SOPE     H15S     HAL2     0.900000E-01   1.00800           0
     10441 MEMB     91       SOPE     C216     CTL2    -0.180000       12.0110           0
     10442 MEMB     91       SOPE     H16R     HAL2     0.900000E-01   1.00800           0
     10443 MEMB     91       SOPE     H16S     HAL2     0.900000E-01   1.00800           0
     10444 MEMB     91       SOPE     C217     CTL2    -0.180000       12.0110           0
     10445 MEMB     91       SOPE     H17R     HAL2     0.900000E-01   1.00800           0
     10446 MEMB     91       SOPE     H17S     HAL2     0.900000E-01   1.00800           0
     10447 MEMB     91       SOPE     C218     CTL3    -0.270000       12.0110           0
     10448 MEMB     91       SOPE     H18R     HAL3     0.900000E-01   1.00800           0
     10449 MEMB     91       SOPE     H18S     HAL3     0.900000E-01   1.00800           0
     10450 MEMB     91       SOPE     H18T     HAL3     0.900000E-01   1.00800           0
     10451 MEMB     91       SOPE     C33      CTL2    -0.180000       12.0110           0
     10452 MEMB     91       SOPE     H3X      HAL2     0.900000E-01   1.00800           0
     10453 MEMB     91       SOPE     H3Y      HAL2     0.900000E-01   1.00800           0
     10454 MEMB     91       SOPE     C34      CTL2    -0.180000       12.0110           0
     10455 MEMB     91       SOPE     H4X      HAL2     0.900000E-01   1.00800           0
     10456 MEMB     91       SOPE     H4Y      HAL2     0.900000E-01   1.00800           0
     10457 MEMB     91       SOPE     C35      CTL2    -0.180000       12.0110           0
     10458 MEMB     91       SOPE     H5X      HAL2     0.900000E-01   1.00800           0
     10459 MEMB     91       SOPE     H5Y      HAL2     0.900000E-01   1.00800           0
     10460 MEMB     91       SOPE     C36      CTL2    -0.180000       12.0110           0
     10461 MEMB     91       SOPE     H6X      HAL2     0.900000E-01   1.00800           0
     10462 MEMB     91       SOPE     H6Y      HAL2     0.900000E-01   1.00800           0
     10463 MEMB     91       SOPE     C37      CTL2    -0.180000       12.0110           0
     10464 MEMB     91       SOPE     H7X      HAL2     0.900000E-01   1.00800           0
     10465 MEMB     91       SOPE     H7Y      HAL2     0.900000E-01   1.00800           0
     10466 MEMB     91       SOPE     C38      CTL2    -0.180000       12.0110           0
     10467 MEMB     91       SOPE     H8X      HAL2     0.900000E-01   1.00800           0
     10468 MEMB     91       SOPE     H8Y      HAL2     0.900000E-01   1.00800           0
     10469 MEMB     91       SOPE     C39      CTL2    -0.180000       12.0110           0
     10470 MEMB     91       SOPE     H9X      HAL2     0.900000E-01   1.00800           0
     10471 MEMB     91       SOPE     H9Y      HAL2     0.900000E-01   1.00800           0
     10472 MEMB     91       SOPE     C310     CTL2    -0.180000       12.0110           0
     10473 MEMB     91       SOPE     H10X     HAL2     0.900000E-01   1.00800           0
     10474 MEMB     91       SOPE     H10Y     HAL2     0.900000E-01   1.00800           0
     10475 MEMB     91       SOPE     C311     CTL2    -0.180000       12.0110           0
     10476 MEMB     91       SOPE     H11X     HAL2     0.900000E-01   1.00800           0
     10477 MEMB     91       SOPE     H11Y     HAL2     0.900000E-01   1.00800           0
     10478 MEMB     91       SOPE     C312     CTL2    -0.180000       12.0110           0
     10479 MEMB     91       SOPE     H12X     HAL2     0.900000E-01   1.00800           0
     10480 MEMB     91       SOPE     H12Y     HAL2     0.900000E-01   1.00800           0
     10481 MEMB     91       SOPE     C313     CTL2    -0.180000       12.0110           0
     10482 MEMB     91       SOPE     H13X     HAL2     0.900000E-01   1.00800           0
     10483 MEMB     91       SOPE     H13Y     HAL2     0.900000E-01   1.00800           0
     10484 MEMB     91       SOPE     C314     CTL2    -0.180000       12.0110           0
     10485 MEMB     91       SOPE     H14X     HAL2     0.900000E-01   1.00800           0
     10486 MEMB     91       SOPE     H14Y     HAL2     0.900000E-01   1.00800           0
     10487 MEMB     91       SOPE     C315     CTL2    -0.180000       12.0110           0
     10488 MEMB     91       SOPE     H15X     HAL2     0.900000E-01   1.00800           0
     10489 MEMB     91       SOPE     H15Y     HAL2     0.900000E-01   1.00800           0
     10490 MEMB     91       SOPE     C316     CTL2    -0.180000       12.0110           0
     10491 MEMB     91       SOPE     H16X     HAL2     0.900000E-01   1.00800           0
     10492 MEMB     91       SOPE     H16Y     HAL2     0.900000E-01   1.00800           0
     10493 MEMB     91       SOPE     C317     CTL2    -0.180000       12.0110           0
     10494 MEMB     91       SOPE     H17X     HAL2     0.900000E-01   1.00800           0
     10495 MEMB     91       SOPE     H17Y     HAL2     0.900000E-01   1.00800           0
     10496 MEMB     91       SOPE     C318     CTL3    -0.270000       12.0110           0
     10497 MEMB     91       SOPE     H18X     HAL3     0.900000E-01   1.00800           0
     10498 MEMB     91       SOPE     H18Y     HAL3     0.900000E-01   1.00800           0
     10499 MEMB     91       SOPE     H18Z     HAL3     0.900000E-01   1.00800           0
     10500 MEMB     92       SAPC     N        NTL     -0.600000       14.0070           0
     10501 MEMB     92       SAPC     C12      CTL2    -0.100000       12.0110           0
     10502 MEMB     92       SAPC     H12A     HL       0.250000       1.00800           0
     10503 MEMB     92       SAPC     H12B     HL       0.250000       1.00800           0
     10504 MEMB     92       SAPC     C13      CTL5    -0.350000       12.0110           0
     10505 MEMB     92       SAPC     H13A     HL       0.250000       1.00800           0
     10506 MEMB     92       SAPC     H13B     HL       0.250000       1.00800           0
     10507 MEMB     92       SAPC     H13C     HL       0.250000       1.00800           0
     10508 MEMB     92       SAPC     C14      CTL5    -0.350000       12.0110           0
     10509 MEMB     92       SAPC     H14A     HL       0.250000       1.00800           0
     10510 MEMB     92       SAPC     H14B     HL       0.250000       1.00800           0
     10511 MEMB     92       SAPC     H14C     HL       0.250000       1.00800           0
     10512 MEMB     92       SAPC     C15      CTL5    -0.350000       12.0110           0
     10513 MEMB     92       SAPC     H15A     HL       0.250000       1.00800           0
     10514 MEMB     92       SAPC     H15B     HL       0.250000       1.00800           0
     10515 MEMB     92       SAPC     H15C     HL       0.250000       1.00800           0
     10516 MEMB     92       SAPC     C11      CTL2    -0.800000E-01   12.0110           0
     10517 MEMB     92       SAPC     H11A     HAL2     0.900000E-01   1.00800           0
     10518 MEMB     92       SAPC     H11B     HAL2     0.900000E-01   1.00800           0
     10519 MEMB     92       SAPC     P        PL        1.50000       30.9740           0
     10520 MEMB     92       SAPC     O13      O2L     -0.780000       15.9994           0
     10521 MEMB     92       SAPC     O14      O2L     -0.780000       15.9994           0
     10522 MEMB     92       SAPC     O12      OSLP    -0.570000       15.9994           0
     10523 MEMB     92       SAPC     O11      OSLP    -0.570000       15.9994           0
     10524 MEMB     92       SAPC     C1       CTL2    -0.800000E-01   12.0110           0
     10525 MEMB     92       SAPC     HA       HAL2     0.900000E-01   1.00800           0
     10526 MEMB     92       SAPC     HB       HAL2     0.900000E-01   1.00800           0
     10527 MEMB     92       SAPC     C2       CTL1     0.170000       12.0110           0
     10528 MEMB     92       SAPC     HS       HAL1     0.900000E-01   1.00800           0
     10529 MEMB     92       SAPC     O21      OSL     -0.490000       15.9994           0
     10530 MEMB     92       SAPC     C21      CL       0.900000       12.0110           0
     10531 MEMB     92       SAPC     O22      OBL     -0.630000       15.9994           0
     10532 MEMB     92       SAPC     C22      CTL2    -0.220000       12.0110           0
     10533 MEMB     92       SAPC     H2R      HAL2     0.900000E-01   1.00800           0
     10534 MEMB     92       SAPC     H2S      HAL2     0.900000E-01   1.00800           0
     10535 MEMB     92       SAPC     C3       CTL2     0.800000E-01   12.0110           0
     10536 MEMB     92       SAPC     HX       HAL2     0.900000E-01   1.00800           0
     10537 MEMB     92       SAPC     HY       HAL2     0.900000E-01   1.00800           0
     10538 MEMB     92       SAPC     O31      OSL     -0.490000       15.9994           0
     10539 MEMB     92       SAPC     C31      CL       0.900000       12.0110           0
     10540 MEMB     92       SAPC     O32      OBL     -0.630000       15.9994           0
     10541 MEMB     92       SAPC     C32      CTL2    -0.220000       12.0110           0
     10542 MEMB     92       SAPC     H2X      HAL2     0.900000E-01   1.00800           0
     10543 MEMB     92       SAPC     H2Y      HAL2     0.900000E-01   1.00800           0
     10544 MEMB     92       SAPC     C23      CTL2    -0.180000       12.0110           0
     10545 MEMB     92       SAPC     H3R      HAL2     0.900000E-01   1.00800           0
     10546 MEMB     92       SAPC     H3S      HAL2     0.900000E-01   1.00800           0
     10547 MEMB     92       SAPC     C24      CTL2    -0.180000       12.0110           0
     10548 MEMB     92       SAPC     H4R      HAL2     0.900000E-01   1.00800           0
     10549 MEMB     92       SAPC     H4S      HAL2     0.900000E-01   1.00800           0
     10550 MEMB     92       SAPC     C25      CEL1    -0.150000       12.0110           0
     10551 MEMB     92       SAPC     H5R      HEL1     0.150000       1.00800           0
     10552 MEMB     92       SAPC     C26      CEL1    -0.150000       12.0110           0
     10553 MEMB     92       SAPC     H6R      HEL1     0.150000       1.00800           0
     10554 MEMB     92       SAPC     C27      CTL2    -0.180000       12.0110           0
     10555 MEMB     92       SAPC     H7R      HAL2     0.900000E-01   1.00800           0
     10556 MEMB     92       SAPC     H7S      HAL2     0.900000E-01   1.00800           0
     10557 MEMB     92       SAPC     C28      CEL1    -0.150000       12.0110           0
     10558 MEMB     92       SAPC     H8R      HEL1     0.150000       1.00800           0
     10559 MEMB     92       SAPC     C29      CEL1    -0.150000       12.0110           0
     10560 MEMB     92       SAPC     H9R      HEL1     0.150000       1.00800           0
     10561 MEMB     92       SAPC     C210     CTL2    -0.180000       12.0110           0
     10562 MEMB     92       SAPC     H10R     HAL2     0.900000E-01   1.00800           0
     10563 MEMB     92       SAPC     H10S     HAL2     0.900000E-01   1.00800           0
     10564 MEMB     92       SAPC     C211     CEL1    -0.150000       12.0110           0
     10565 MEMB     92       SAPC     H11R     HEL1     0.150000       1.00800           0
     10566 MEMB     92       SAPC     C212     CEL1    -0.150000       12.0110           0
     10567 MEMB     92       SAPC     H12R     HEL1     0.150000       1.00800           0
     10568 MEMB     92       SAPC     C213     CTL2    -0.180000       12.0110           0
     10569 MEMB     92       SAPC     H13R     HAL2     0.900000E-01   1.00800           0
     10570 MEMB     92       SAPC     H13S     HAL2     0.900000E-01   1.00800           0
     10571 MEMB     92       SAPC     C214     CEL1    -0.150000       12.0110           0
     10572 MEMB     92       SAPC     H14R     HEL1     0.150000       1.00800           0
     10573 MEMB     92       SAPC     C215     CEL1    -0.150000       12.0110           0
     10574 MEMB     92       SAPC     H15R     HEL1     0.150000       1.00800           0
     10575 MEMB     92       SAPC     C216     CTL2    -0.180000       12.0110           0
     10576 MEMB     92       SAPC     H16R     HAL2     0.900000E-01   1.00800           0
     10577 MEMB     92       SAPC     H16S     HAL2     0.900000E-01   1.00800           0
     10578 MEMB     92       SAPC     C217     CTL2    -0.180000       12.0110           0
     10579 MEMB     92       SAPC     H17R     HAL2     0.900000E-01   1.00800           0
     10580 MEMB     92       SAPC     H17S     HAL2     0.900000E-01   1.00800           0
     10581 MEMB     92       SAPC     C218     CTL2    -0.270000       12.0110           0
     10582 MEMB     92       SAPC     H18R     HAL2     0.900000E-01   1.00800           0
     10583 MEMB     92       SAPC     H18S     HAL2     0.900000E-01   1.00800           0
     10584 MEMB     92       SAPC     C219     CTL2    -0.180000       12.0110           0
     10585 MEMB     92       SAPC     H19R     HAL2     0.900000E-01   1.00800           0
     10586 MEMB     92       SAPC     H19S     HAL2     0.900000E-01   1.00800           0
     10587 MEMB     92       SAPC     C220     CTL3    -0.180000       12.0110           0
     10588 MEMB     92       SAPC     H20R     HAL3     0.900000E-01   1.00800           0
     10589 MEMB     92       SAPC     H20S     HAL3     0.900000E-01   1.00800           0
     10590 MEMB     92       SAPC     H20T     HAL3     0.900000E-01   1.00800           0
     10591 MEMB     92       SAPC     C33      CTL2    -0.180000       12.0110           0
     10592 MEMB     92       SAPC     H3X      HAL2     0.900000E-01   1.00800           0
     10593 MEMB     92       SAPC     H3Y      HAL2     0.900000E-01   1.00800           0
     10594 MEMB     92       SAPC     C34      CTL2    -0.180000       12.0110           0
     10595 MEMB     92       SAPC     H4X      HAL2     0.900000E-01   1.00800           0
     10596 MEMB     92       SAPC     H4Y      HAL2     0.900000E-01   1.00800           0
     10597 MEMB     92       SAPC     C35      CTL2    -0.180000       12.0110           0
     10598 MEMB     92       SAPC     H5X      HAL2     0.900000E-01   1.00800           0
     10599 MEMB     92       SAPC     H5Y      HAL2     0.900000E-01   1.00800           0
     10600 MEMB     92       SAPC     C36      CTL2    -0.180000       12.0110           0
     10601 MEMB     92       SAPC     H6X      HAL2     0.900000E-01   1.00800           0
     10602 MEMB     92       SAPC     H6Y      HAL2     0.900000E-01   1.00800           0
     10603 MEMB     92       SAPC     C37      CTL2    -0.180000       12.0110           0
     10604 MEMB     92       SAPC     H7X      HAL2     0.900000E-01   1.00800           0
     10605 MEMB     92       SAPC     H7Y      HAL2     0.900000E-01   1.00800           0
     10606 MEMB     92       SAPC     C38      CTL2    -0.180000       12.0110           0
     10607 MEMB     92       SAPC     H8X      HAL2     0.900000E-01   1.00800           0
     10608 MEMB     92       SAPC     H8Y      HAL2     0.900000E-01   1.00800           0
     10609 MEMB     92       SAPC     C39      CTL2    -0.180000       12.0110           0
     10610 MEMB     92       SAPC     H9X      HAL2     0.900000E-01   1.00800           0
     10611 MEMB     92       SAPC     H9Y      HAL2     0.900000E-01   1.00800           0
     10612 MEMB     92       SAPC     C310     CTL2    -0.180000       12.0110           0
     10613 MEMB     92       SAPC     H10X     HAL2     0.900000E-01   1.00800           0
     10614 MEMB     92       SAPC     H10Y     HAL2     0.900000E-01   1.00800           0
     10615 MEMB     92       SAPC     C311     CTL2    -0.180000       12.0110           0
     10616 MEMB     92       SAPC     H11X     HAL2     0.900000E-01   1.00800           0
     10617 MEMB     92       SAPC     H11Y     HAL2     0.900000E-01   1.00800           0
     10618 MEMB     92       SAPC     C312     CTL2    -0.180000       12.0110           0
     10619 MEMB     92       SAPC     H12X     HAL2     0.900000E-01   1.00800           0
     10620 MEMB     92       SAPC     H12Y     HAL2     0.900000E-01   1.00800           0
     10621 MEMB     92       SAPC     C313     CTL2    -0.180000       12.0110           0
     10622 MEMB     92       SAPC     H13X     HAL2     0.900000E-01   1.00800           0
     10623 MEMB     92       SAPC     H13Y     HAL2     0.900000E-01   1.00800           0
     10624 MEMB     92       SAPC     C314     CTL2    -0.180000       12.0110           0
     10625 MEMB     92       SAPC     H14X     HAL2     0.900000E-01   1.00800           0
     10626 MEMB     92       SAPC     H14Y     HAL2     0.900000E-01   1.00800           0
     10627 MEMB     92       SAPC     C315     CTL2    -0.180000       12.0110           0
     10628 MEMB     92       SAPC     H15X     HAL2     0.900000E-01   1.00800           0
     10629 MEMB     92       SAPC     H15Y     HAL2     0.900000E-01   1.00800           0
     10630 MEMB     92       SAPC     C316     CTL2    -0.180000       12.0110           0
     10631 MEMB     92       SAPC     H16X     HAL2     0.900000E-01   1.00800           0
     10632 MEMB     92       SAPC     H16Y     HAL2     0.900000E-01   1.00800           0
     10633 MEMB     92       SAPC     C317     CTL2    -0.180000       12.0110           0
     10634 MEMB     92       SAPC     H17X     HAL2     0.900000E-01   1.00800           0
     10635 MEMB     92       SAPC     H17Y     HAL2     0.900000E-01   1.00800           0
     10636 MEMB     92       SAPC     C318     CTL3    -0.270000       12.0110           0
     10637 MEMB     92       SAPC     H18X     HAL3     0.900000E-01   1.00800           0
     10638 MEMB     92       SAPC     H18Y     HAL3     0.900000E-01   1.00800           0
     10639 MEMB     92       SAPC     H18Z     HAL3     0.900000E-01   1.00800           0
     10640 MEMB     93       CHL1     C3       CRL1     0.140000       12.0110           0
     10641 MEMB     93       CHL1     H3       HGA1     0.900000E-01   1.00800           0
     10642 MEMB     93       CHL1     O3       OHL     -0.660000       15.9994           0
     10643 MEMB     93       CHL1     H3'      HOL      0.430000       1.00800           0
     10644 MEMB     93       CHL1     C4       CRL2    -0.180000       12.0110           0
     10645 MEMB     93       CHL1     H4A      HGA2     0.900000E-01   1.00800           0
     10646 MEMB     93       CHL1     H4B      HGA2     0.900000E-01   1.00800           0
     10647 MEMB     93       CHL1     C5       CEL1      0.00000       12.0110           0
     10648 MEMB     93       CHL1     C6       CEL1    -0.150000       12.0110           0
     10649 MEMB     93       CHL1     H6       HEL1     0.150000       1.00800           0
     10650 MEMB     93       CHL1     C7       CRL2    -0.180000       12.0110           0
     10651 MEMB     93       CHL1     H7A      HGA2     0.900000E-01   1.00800           0
     10652 MEMB     93       CHL1     H7B      HGA2     0.900000E-01   1.00800           0
     10653 MEMB     93       CHL1     C8       CRL1    -0.900000E-01   12.0110           0
     10654 MEMB     93       CHL1     H8       HGA1     0.900000E-01   1.00800           0
     10655 MEMB     93       CHL1     C14      CRL1    -0.900000E-01   12.0110           0
     10656 MEMB     93       CHL1     H14      HGA1     0.900000E-01   1.00800           0
     10657 MEMB     93       CHL1     C15      CRL2    -0.180000       12.0110           0
     10658 MEMB     93       CHL1     H15A     HGA2     0.900000E-01   1.00800           0
     10659 MEMB     93       CHL1     H15B     HGA2     0.900000E-01   1.00800           0
     10660 MEMB     93       CHL1     C16      CRL2    -0.180000       12.0110           0
     10661 MEMB     93       CHL1     H16A     HGA2     0.900000E-01   1.00800           0
     10662 MEMB     93       CHL1     H16B     HGA2     0.900000E-01   1.00800           0
     10663 MEMB     93       CHL1     C17      CRL1    -0.900000E-01   12.0110           0
     10664 MEMB     93       CHL1     H17      HGA1     0.900000E-01   1.00800           0
     10665 MEMB     93       CHL1     C13      CRL1      0.00000       12.0110           0
     10666 MEMB     93       CHL1     C18      CTL3    -0.270000       12.0110           0
     10667 MEMB     93       CHL1     H18A     HAL3     0.900000E-01   1.00800           0
     10668 MEMB     93       CHL1     H18B     HAL3     0.900000E-01   1.00800           0
     10669 MEMB     93       CHL1     H18C     HAL3     0.900000E-01   1.00800           0
     10670 MEMB     93       CHL1     C12      CRL2    -0.180000       12.0110           0
     10671 MEMB     93       CHL1     H12A     HGA2     0.900000E-01   1.00800           0
     10672 MEMB     93       CHL1     H12B     HGA2     0.900000E-01   1.00800           0
     10673 MEMB     93       CHL1     C11      CRL2    -0.180000       12.0110           0
     10674 MEMB     93       CHL1     H11A     HGA2     0.900000E-01   1.00800           0
     10675 MEMB     93       CHL1     H11B     HGA2     0.900000E-01   1.00800           0
     10676 MEMB     93       CHL1     C9       CRL1    -0.900000E-01   12.0110           0
     10677 MEMB     93       CHL1     H9       HGA1     0.900000E-01   1.00800           0
     10678 MEMB     93       CHL1     C10      CRL1      0.00000       12.0110           0
     10679 MEMB     93       CHL1     C19      CTL3    -0.270000       12.0110           0
     10680 MEMB     93       CHL1     H19A     HAL3     0.900000E-01   1.00800           0
     10681 MEMB     93       CHL1     H19B     HAL3     0.900000E-01   1.00800           0
     10682 MEMB     93       CHL1     H19C     HAL3     0.900000E-01   1.00800           0
     10683 MEMB     93       CHL1     C1       CRL2    -0.180000       12.0110           0
     10684 MEMB     93       CHL1     H1A      HGA2     0.900000E-01   1.00800           0
     10685 MEMB     93       CHL1     H1B      HGA2     0.900000E-01   1.00800           0
     10686 MEMB     93       CHL1     C2       CRL2    -0.180000       12.0110           0
     10687 MEMB     93       CHL1     H2A      HGA2     0.900000E-01   1.00800           0
     10688 MEMB     93       CHL1     H2B      HGA2     0.900000E-01   1.00800           0
     10689 MEMB     93       CHL1     C20      CTL1    -0.900000E-01   12.0110           0
     10690 MEMB     93       CHL1     H20      HAL1     0.900000E-01   1.00800           0
     10691 MEMB     93       CHL1     C21      CTL3    -0.270000       12.0110           0
     10692 MEMB     93       CHL1     H21A     HAL3     0.900000E-01   1.00800           0
     10693 MEMB     93       CHL1     H21B     HAL3     0.900000E-01   1.00800           0
     10694 MEMB     93       CHL1     H21C     HAL3     0.900000E-01   1.00800           0
     10695 MEMB     93       CHL1     C22      CTL2    -0.180000       12.0110           0
     10696 MEMB     93       CHL1     H22A     HAL2     0.900000E-01   1.00800           0
     10697 MEMB     93       CHL1     H22B     HAL2     0.900000E-01   1.00800           0
     10698 MEMB     93       CHL1     C23      CTL2    -0.180000       12.0110           0
     10699 MEMB     93       CHL1     H23A     HAL2     0.900000E-01   1.00800           0
     10700 MEMB     93       CHL1     H23B     HAL2     0.900000E-01   1.00800           0
     10701 MEMB     93       CHL1     C24      CTL2    -0.180000       12.0110           0
     10702 MEMB     93       CHL1     H24A     HAL2     0.900000E-01   1.00800           0
     10703 MEMB     93       CHL1     H24B     HAL2     0.900000E-01   1.00800           0
     10704 MEMB     93       CHL1     C25      CTL1    -0.900000E-01   12.0110           0
     10705 MEMB     93       CHL1     H25      HAL1     0.900000E-01   1.00800           0
     10706 MEMB     93       CHL1     C26      CTL3    -0.270000       12.0110           0
     10707 MEMB     93       CHL1     H26A     HAL3     0.900000E-01   1.00800           0
     10708 MEMB     93       CHL1     H26B     HAL3     0.900000E-01   1.00800           0
     10709 MEMB     93       CHL1     H26C     HAL3     0.900000E-01   1.00800           0
     10710 MEMB     93       CHL1     C27      CTL3    -0.270000       12.0110           0
     10711 MEMB     93       CHL1     H27A     HAL3     0.900000E-01   1.00800           0
     10712 MEMB     93       CHL1     H27B     HAL3     0.900000E-01   1.00800           0
     10713 MEMB     93       CHL1     H27C     HAL3     0.900000E-01   1.00800           0
     10714 MEMB     94       SAPC     N        NTL     -0.600000       14.0070           0
     10715 MEMB     94       SAPC     C12      CTL2    -0.100000       12.0110           0
     10716 MEMB     94       SAPC     H12A     HL       0.250000       1.00800           0
     10717 MEMB     94       SAPC     H12B     HL       0.250000       1.00800           0
     10718 MEMB     94       SAPC     C13      CTL5    -0.350000       12.0110           0
     10719 MEMB     94       SAPC     H13A     HL       0.250000       1.00800           0
     10720 MEMB     94       SAPC     H13B     HL       0.250000       1.00800           0
     10721 MEMB     94       SAPC     H13C     HL       0.250000       1.00800           0
     10722 MEMB     94       SAPC     C14      CTL5    -0.350000       12.0110           0
     10723 MEMB     94       SAPC     H14A     HL       0.250000       1.00800           0
     10724 MEMB     94       SAPC     H14B     HL       0.250000       1.00800           0
     10725 MEMB     94       SAPC     H14C     HL       0.250000       1.00800           0
     10726 MEMB     94       SAPC     C15      CTL5    -0.350000       12.0110           0
     10727 MEMB     94       SAPC     H15A     HL       0.250000       1.00800           0
     10728 MEMB     94       SAPC     H15B     HL       0.250000       1.00800           0
     10729 MEMB     94       SAPC     H15C     HL       0.250000       1.00800           0
     10730 MEMB     94       SAPC     C11      CTL2    -0.800000E-01   12.0110           0
     10731 MEMB     94       SAPC     H11A     HAL2     0.900000E-01   1.00800           0
     10732 MEMB     94       SAPC     H11B     HAL2     0.900000E-01   1.00800           0
     10733 MEMB     94       SAPC     P        PL        1.50000       30.9740           0
     10734 MEMB     94       SAPC     O13      O2L     -0.780000       15.9994           0
     10735 MEMB     94       SAPC     O14      O2L     -0.780000       15.9994           0
     10736 MEMB     94       SAPC     O12      OSLP    -0.570000       15.9994           0
     10737 MEMB     94       SAPC     O11      OSLP    -0.570000       15.9994           0
     10738 MEMB     94       SAPC     C1       CTL2    -0.800000E-01   12.0110           0
     10739 MEMB     94       SAPC     HA       HAL2     0.900000E-01   1.00800           0
     10740 MEMB     94       SAPC     HB       HAL2     0.900000E-01   1.00800           0
     10741 MEMB     94       SAPC     C2       CTL1     0.170000       12.0110           0
     10742 MEMB     94       SAPC     HS       HAL1     0.900000E-01   1.00800           0
     10743 MEMB     94       SAPC     O21      OSL     -0.490000       15.9994           0
     10744 MEMB     94       SAPC     C21      CL       0.900000       12.0110           0
     10745 MEMB     94       SAPC     O22      OBL     -0.630000       15.9994           0
     10746 MEMB     94       SAPC     C22      CTL2    -0.220000       12.0110           0
     10747 MEMB     94       SAPC     H2R      HAL2     0.900000E-01   1.00800           0
     10748 MEMB     94       SAPC     H2S      HAL2     0.900000E-01   1.00800           0
     10749 MEMB     94       SAPC     C3       CTL2     0.800000E-01   12.0110           0
     10750 MEMB     94       SAPC     HX       HAL2     0.900000E-01   1.00800           0
     10751 MEMB     94       SAPC     HY       HAL2     0.900000E-01   1.00800           0
     10752 MEMB     94       SAPC     O31      OSL     -0.490000       15.9994           0
     10753 MEMB     94       SAPC     C31      CL       0.900000       12.0110           0
     10754 MEMB     94       SAPC     O32      OBL     -0.630000       15.9994           0
     10755 MEMB     94       SAPC     C32      CTL2    -0.220000       12.0110           0
     10756 MEMB     94       SAPC     H2X      HAL2     0.900000E-01   1.00800           0
     10757 MEMB     94       SAPC     H2Y      HAL2     0.900000E-01   1.00800           0
     10758 MEMB     94       SAPC     C23      CTL2    -0.180000       12.0110           0
     10759 MEMB     94       SAPC     H3R      HAL2     0.900000E-01   1.00800           0
     10760 MEMB     94       SAPC     H3S      HAL2     0.900000E-01   1.00800           0
     10761 MEMB     94       SAPC     C24      CTL2    -0.180000       12.0110           0
     10762 MEMB     94       SAPC     H4R      HAL2     0.900000E-01   1.00800           0
     10763 MEMB     94       SAPC     H4S      HAL2     0.900000E-01   1.00800           0
     10764 MEMB     94       SAPC     C25      CEL1    -0.150000       12.0110           0
     10765 MEMB     94       SAPC     H5R      HEL1     0.150000       1.00800           0
     10766 MEMB     94       SAPC     C26      CEL1    -0.150000       12.0110           0
     10767 MEMB     94       SAPC     H6R      HEL1     0.150000       1.00800           0
     10768 MEMB     94       SAPC     C27      CTL2    -0.180000       12.0110           0
     10769 MEMB     94       SAPC     H7R      HAL2     0.900000E-01   1.00800           0
     10770 MEMB     94       SAPC     H7S      HAL2     0.900000E-01   1.00800           0
     10771 MEMB     94       SAPC     C28      CEL1    -0.150000       12.0110           0
     10772 MEMB     94       SAPC     H8R      HEL1     0.150000       1.00800           0
     10773 MEMB     94       SAPC     C29      CEL1    -0.150000       12.0110           0
     10774 MEMB     94       SAPC     H9R      HEL1     0.150000       1.00800           0
     10775 MEMB     94       SAPC     C210     CTL2    -0.180000       12.0110           0
     10776 MEMB     94       SAPC     H10R     HAL2     0.900000E-01   1.00800           0
     10777 MEMB     94       SAPC     H10S     HAL2     0.900000E-01   1.00800           0
     10778 MEMB     94       SAPC     C211     CEL1    -0.150000       12.0110           0
     10779 MEMB     94       SAPC     H11R     HEL1     0.150000       1.00800           0
     10780 MEMB     94       SAPC     C212     CEL1    -0.150000       12.0110           0
     10781 MEMB     94       SAPC     H12R     HEL1     0.150000       1.00800           0
     10782 MEMB     94       SAPC     C213     CTL2    -0.180000       12.0110           0
     10783 MEMB     94       SAPC     H13R     HAL2     0.900000E-01   1.00800           0
     10784 MEMB     94       SAPC     H13S     HAL2     0.900000E-01   1.00800           0
     10785 MEMB     94       SAPC     C214     CEL1    -0.150000       12.0110           0
     10786 MEMB     94       SAPC     H14R     HEL1     0.150000       1.00800           0
     10787 MEMB     94       SAPC     C215     CEL1    -0.150000       12.0110           0
     10788 MEMB     94       SAPC     H15R     HEL1     0.150000       1.00800           0
     10789 MEMB     94       SAPC     C216     CTL2    -0.180000       12.0110           0
     10790 MEMB     94       SAPC     H16R     HAL2     0.900000E-01   1.00800           0
     10791 MEMB     94       SAPC     H16S     HAL2     0.900000E-01   1.00800           0
     10792 MEMB     94       SAPC     C217     CTL2    -0.180000       12.0110           0
     10793 MEMB     94       SAPC     H17R     HAL2     0.900000E-01   1.00800           0
     10794 MEMB     94       SAPC     H17S     HAL2     0.900000E-01   1.00800           0
     10795 MEMB     94       SAPC     C218     CTL2    -0.270000       12.0110           0
     10796 MEMB     94       SAPC     H18R     HAL2     0.900000E-01   1.00800           0
     10797 MEMB     94       SAPC     H18S     HAL2     0.900000E-01   1.00800           0
     10798 MEMB     94       SAPC     C219     CTL2    -0.180000       12.0110           0
     10799 MEMB     94       SAPC     H19R     HAL2     0.900000E-01   1.00800           0
     10800 MEMB     94       SAPC     H19S     HAL2     0.900000E-01   1.00800           0
     10801 MEMB     94       SAPC     C220     CTL3    -0.180000       12.0110           0
     10802 MEMB     94       SAPC     H20R     HAL3     0.900000E-01   1.00800           0
     10803 MEMB     94       SAPC     H20S     HAL3     0.900000E-01   1.00800           0
     10804 MEMB     94       SAPC     H20T     HAL3     0.900000E-01   1.00800           0
     10805 MEMB     94       SAPC     C33      CTL2    -0.180000       12.0110           0
     10806 MEMB     94       SAPC     H3X      HAL2     0.900000E-01   1.00800           0
     10807 MEMB     94       SAPC     H3Y      HAL2     0.900000E-01   1.00800           0
     10808 MEMB     94       SAPC     C34      CTL2    -0.180000       12.0110           0
     10809 MEMB     94       SAPC     H4X      HAL2     0.900000E-01   1.00800           0
     10810 MEMB     94       SAPC     H4Y      HAL2     0.900000E-01   1.00800           0
     10811 MEMB     94       SAPC     C35      CTL2    -0.180000       12.0110           0
     10812 MEMB     94       SAPC     H5X      HAL2     0.900000E-01   1.00800           0
     10813 MEMB     94       SAPC     H5Y      HAL2     0.900000E-01   1.00800           0
     10814 MEMB     94       SAPC     C36      CTL2    -0.180000       12.0110           0
     10815 MEMB     94       SAPC     H6X      HAL2     0.900000E-01   1.00800           0
     10816 MEMB     94       SAPC     H6Y      HAL2     0.900000E-01   1.00800           0
     10817 MEMB     94       SAPC     C37      CTL2    -0.180000       12.0110           0
     10818 MEMB     94       SAPC     H7X      HAL2     0.900000E-01   1.00800           0
     10819 MEMB     94       SAPC     H7Y      HAL2     0.900000E-01   1.00800           0
     10820 MEMB     94       SAPC     C38      CTL2    -0.180000       12.0110           0
     10821 MEMB     94       SAPC     H8X      HAL2     0.900000E-01   1.00800           0
     10822 MEMB     94       SAPC     H8Y      HAL2     0.900000E-01   1.00800           0
     10823 MEMB     94       SAPC     C39      CTL2    -0.180000       12.0110           0
     10824 MEMB     94       SAPC     H9X      HAL2     0.900000E-01   1.00800           0
     10825 MEMB     94       SAPC     H9Y      HAL2     0.900000E-01   1.00800           0
     10826 MEMB     94       SAPC     C310     CTL2    -0.180000       12.0110           0
     10827 MEMB     94       SAPC     H10X     HAL2     0.900000E-01   1.00800           0
     10828 MEMB     94       SAPC     H10Y     HAL2     0.900000E-01   1.00800           0
     10829 MEMB     94       SAPC     C311     CTL2    -0.180000       12.0110           0
     10830 MEMB     94       SAPC     H11X     HAL2     0.900000E-01   1.00800           0
     10831 MEMB     94       SAPC     H11Y     HAL2     0.900000E-01   1.00800           0
     10832 MEMB     94       SAPC     C312     CTL2    -0.180000       12.0110           0
     10833 MEMB     94       SAPC     H12X     HAL2     0.900000E-01   1.00800           0
     10834 MEMB     94       SAPC     H12Y     HAL2     0.900000E-01   1.00800           0
     10835 MEMB     94       SAPC     C313     CTL2    -0.180000       12.0110           0
     10836 MEMB     94       SAPC     H13X     HAL2     0.900000E-01   1.00800           0
     10837 MEMB     94       SAPC     H13Y     HAL2     0.900000E-01   1.00800           0
     10838 MEMB     94       SAPC     C314     CTL2    -0.180000       12.0110           0
     10839 MEMB     94       SAPC     H14X     HAL2     0.900000E-01   1.00800           0
     10840 MEMB     94       SAPC     H14Y     HAL2     0.900000E-01   1.00800           0
     10841 MEMB     94       SAPC     C315     CTL2    -0.180000       12.0110           0
     10842 MEMB     94       SAPC     H15X     HAL2     0.900000E-01   1.00800           0
     10843 MEMB     94       SAPC     H15Y     HAL2     0.900000E-01   1.00800           0
     10844 MEMB     94       SAPC     C316     CTL2    -0.180000       12.0110           0
     10845 MEMB     94       SAPC     H16X     HAL2     0.900000E-01   1.00800           0
     10846 MEMB     94       SAPC     H16Y     HAL2     0.900000E-01   1.00800           0
     10847 MEMB     94       SAPC     C317     CTL2    -0.180000       12.0110           0
     10848 MEMB     94       SAPC     H17X     HAL2     0.900000E-01   1.00800           0
     10849 MEMB     94       SAPC     H17Y     HAL2     0.900000E-01   1.00800           0
     10850 MEMB     94       SAPC     C318     CTL3    -0.270000       12.0110           0
     10851 MEMB     94       SAPC     H18X     HAL3     0.900000E-01   1.00800           0
     10852 MEMB     94       SAPC     H18Y     HAL3     0.900000E-01   1.00800           0
     10853 MEMB     94       SAPC     H18Z     HAL3     0.900000E-01   1.00800           0
     10854 MEMB     95       SAPC     N        NTL     -0.600000       14.0070           0
     10855 MEMB     95       SAPC     C12      CTL2    -0.100000       12.0110           0
     10856 MEMB     95       SAPC     H12A     HL       0.250000       1.00800           0
     10857 MEMB     95       SAPC     H12B     HL       0.250000       1.00800           0
     10858 MEMB     95       SAPC     C13      CTL5    -0.350000       12.0110           0
     10859 MEMB     95       SAPC     H13A     HL       0.250000       1.00800           0
     10860 MEMB     95       SAPC     H13B     HL       0.250000       1.00800           0
     10861 MEMB     95       SAPC     H13C     HL       0.250000       1.00800           0
     10862 MEMB     95       SAPC     C14      CTL5    -0.350000       12.0110           0
     10863 MEMB     95       SAPC     H14A     HL       0.250000       1.00800           0
     10864 MEMB     95       SAPC     H14B     HL       0.250000       1.00800           0
     10865 MEMB     95       SAPC     H14C     HL       0.250000       1.00800           0
     10866 MEMB     95       SAPC     C15      CTL5    -0.350000       12.0110           0
     10867 MEMB     95       SAPC     H15A     HL       0.250000       1.00800           0
     10868 MEMB     95       SAPC     H15B     HL       0.250000       1.00800           0
     10869 MEMB     95       SAPC     H15C     HL       0.250000       1.00800           0
     10870 MEMB     95       SAPC     C11      CTL2    -0.800000E-01   12.0110           0
     10871 MEMB     95       SAPC     H11A     HAL2     0.900000E-01   1.00800           0
     10872 MEMB     95       SAPC     H11B     HAL2     0.900000E-01   1.00800           0
     10873 MEMB     95       SAPC     P        PL        1.50000       30.9740           0
     10874 MEMB     95       SAPC     O13      O2L     -0.780000       15.9994           0
     10875 MEMB     95       SAPC     O14      O2L     -0.780000       15.9994           0
     10876 MEMB     95       SAPC     O12      OSLP    -0.570000       15.9994           0
     10877 MEMB     95       SAPC     O11      OSLP    -0.570000       15.9994           0
     10878 MEMB     95       SAPC     C1       CTL2    -0.800000E-01   12.0110           0
     10879 MEMB     95       SAPC     HA       HAL2     0.900000E-01   1.00800           0
     10880 MEMB     95       SAPC     HB       HAL2     0.900000E-01   1.00800           0
     10881 MEMB     95       SAPC     C2       CTL1     0.170000       12.0110           0
     10882 MEMB     95       SAPC     HS       HAL1     0.900000E-01   1.00800           0
     10883 MEMB     95       SAPC     O21      OSL     -0.490000       15.9994           0
     10884 MEMB     95       SAPC     C21      CL       0.900000       12.0110           0
     10885 MEMB     95       SAPC     O22      OBL     -0.630000       15.9994           0
     10886 MEMB     95       SAPC     C22      CTL2    -0.220000       12.0110           0
     10887 MEMB     95       SAPC     H2R      HAL2     0.900000E-01   1.00800           0
     10888 MEMB     95       SAPC     H2S      HAL2     0.900000E-01   1.00800           0
     10889 MEMB     95       SAPC     C3       CTL2     0.800000E-01   12.0110           0
     10890 MEMB     95       SAPC     HX       HAL2     0.900000E-01   1.00800           0
     10891 MEMB     95       SAPC     HY       HAL2     0.900000E-01   1.00800           0
     10892 MEMB     95       SAPC     O31      OSL     -0.490000       15.9994           0
     10893 MEMB     95       SAPC     C31      CL       0.900000       12.0110           0
     10894 MEMB     95       SAPC     O32      OBL     -0.630000       15.9994           0
     10895 MEMB     95       SAPC     C32      CTL2    -0.220000       12.0110           0
     10896 MEMB     95       SAPC     H2X      HAL2     0.900000E-01   1.00800           0
     10897 MEMB     95       SAPC     H2Y      HAL2     0.900000E-01   1.00800           0
     10898 MEMB     95       SAPC     C23      CTL2    -0.180000       12.0110           0
     10899 MEMB     95       SAPC     H3R      HAL2     0.900000E-01   1.00800           0
     10900 MEMB     95       SAPC     H3S      HAL2     0.900000E-01   1.00800           0
     10901 MEMB     95       SAPC     C24      CTL2    -0.180000       12.0110           0
     10902 MEMB     95       SAPC     H4R      HAL2     0.900000E-01   1.00800           0
     10903 MEMB     95       SAPC     H4S      HAL2     0.900000E-01   1.00800           0
     10904 MEMB     95       SAPC     C25      CEL1    -0.150000       12.0110           0
     10905 MEMB     95       SAPC     H5R      HEL1     0.150000       1.00800           0
     10906 MEMB     95       SAPC     C26      CEL1    -0.150000       12.0110           0
     10907 MEMB     95       SAPC     H6R      HEL1     0.150000       1.00800           0
     10908 MEMB     95       SAPC     C27      CTL2    -0.180000       12.0110           0
     10909 MEMB     95       SAPC     H7R      HAL2     0.900000E-01   1.00800           0
     10910 MEMB     95       SAPC     H7S      HAL2     0.900000E-01   1.00800           0
     10911 MEMB     95       SAPC     C28      CEL1    -0.150000       12.0110           0
     10912 MEMB     95       SAPC     H8R      HEL1     0.150000       1.00800           0
     10913 MEMB     95       SAPC     C29      CEL1    -0.150000       12.0110           0
     10914 MEMB     95       SAPC     H9R      HEL1     0.150000       1.00800           0
     10915 MEMB     95       SAPC     C210     CTL2    -0.180000       12.0110           0
     10916 MEMB     95       SAPC     H10R     HAL2     0.900000E-01   1.00800           0
     10917 MEMB     95       SAPC     H10S     HAL2     0.900000E-01   1.00800           0
     10918 MEMB     95       SAPC     C211     CEL1    -0.150000       12.0110           0
     10919 MEMB     95       SAPC     H11R     HEL1     0.150000       1.00800           0
     10920 MEMB     95       SAPC     C212     CEL1    -0.150000       12.0110           0
     10921 MEMB     95       SAPC     H12R     HEL1     0.150000       1.00800           0
     10922 MEMB     95       SAPC     C213     CTL2    -0.180000       12.0110           0
     10923 MEMB     95       SAPC     H13R     HAL2     0.900000E-01   1.00800           0
     10924 MEMB     95       SAPC     H13S     HAL2     0.900000E-01   1.00800           0
     10925 MEMB     95       SAPC     C214     CEL1    -0.150000       12.0110           0
     10926 MEMB     95       SAPC     H14R     HEL1     0.150000       1.00800           0
     10927 MEMB     95       SAPC     C215     CEL1    -0.150000       12.0110           0
     10928 MEMB     95       SAPC     H15R     HEL1     0.150000       1.00800           0
     10929 MEMB     95       SAPC     C216     CTL2    -0.180000       12.0110           0
     10930 MEMB     95       SAPC     H16R     HAL2     0.900000E-01   1.00800           0
     10931 MEMB     95       SAPC     H16S     HAL2     0.900000E-01   1.00800           0
     10932 MEMB     95       SAPC     C217     CTL2    -0.180000       12.0110           0
     10933 MEMB     95       SAPC     H17R     HAL2     0.900000E-01   1.00800           0
     10934 MEMB     95       SAPC     H17S     HAL2     0.900000E-01   1.00800           0
     10935 MEMB     95       SAPC     C218     CTL2    -0.270000       12.0110           0
     10936 MEMB     95       SAPC     H18R     HAL2     0.900000E-01   1.00800           0
     10937 MEMB     95       SAPC     H18S     HAL2     0.900000E-01   1.00800           0
     10938 MEMB     95       SAPC     C219     CTL2    -0.180000       12.0110           0
     10939 MEMB     95       SAPC     H19R     HAL2     0.900000E-01   1.00800           0
     10940 MEMB     95       SAPC     H19S     HAL2     0.900000E-01   1.00800           0
     10941 MEMB     95       SAPC     C220     CTL3    -0.180000       12.0110           0
     10942 MEMB     95       SAPC     H20R     HAL3     0.900000E-01   1.00800           0
     10943 MEMB     95       SAPC     H20S     HAL3     0.900000E-01   1.00800           0
     10944 MEMB     95       SAPC     H20T     HAL3     0.900000E-01   1.00800           0
     10945 MEMB     95       SAPC     C33      CTL2    -0.180000       12.0110           0
     10946 MEMB     95       SAPC     H3X      HAL2     0.900000E-01   1.00800           0
     10947 MEMB     95       SAPC     H3Y      HAL2     0.900000E-01   1.00800           0
     10948 MEMB     95       SAPC     C34      CTL2    -0.180000       12.0110           0
     10949 MEMB     95       SAPC     H4X      HAL2     0.900000E-01   1.00800           0
     10950 MEMB     95       SAPC     H4Y      HAL2     0.900000E-01   1.00800           0
     10951 MEMB     95       SAPC     C35      CTL2    -0.180000       12.0110           0
     10952 MEMB     95       SAPC     H5X      HAL2     0.900000E-01   1.00800           0
     10953 MEMB     95       SAPC     H5Y      HAL2     0.900000E-01   1.00800           0
     10954 MEMB     95       SAPC     C36      CTL2    -0.180000       12.0110           0
     10955 MEMB     95       SAPC     H6X      HAL2     0.900000E-01   1.00800           0
     10956 MEMB     95       SAPC     H6Y      HAL2     0.900000E-01   1.00800           0
     10957 MEMB     95       SAPC     C37      CTL2    -0.180000       12.0110           0
     10958 MEMB     95       SAPC     H7X      HAL2     0.900000E-01   1.00800           0
     10959 MEMB     95       SAPC     H7Y      HAL2     0.900000E-01   1.00800           0
     10960 MEMB     95       SAPC     C38      CTL2    -0.180000       12.0110           0
     10961 MEMB     95       SAPC     H8X      HAL2     0.900000E-01   1.00800           0
     10962 MEMB     95       SAPC     H8Y      HAL2     0.900000E-01   1.00800           0
     10963 MEMB     95       SAPC     C39      CTL2    -0.180000       12.0110           0
     10964 MEMB     95       SAPC     H9X      HAL2     0.900000E-01   1.00800           0
     10965 MEMB     95       SAPC     H9Y      HAL2     0.900000E-01   1.00800           0
     10966 MEMB     95       SAPC     C310     CTL2    -0.180000       12.0110           0
     10967 MEMB     95       SAPC     H10X     HAL2     0.900000E-01   1.00800           0
     10968 MEMB     95       SAPC     H10Y     HAL2     0.900000E-01   1.00800           0
     10969 MEMB     95       SAPC     C311     CTL2    -0.180000       12.0110           0
     10970 MEMB     95       SAPC     H11X     HAL2     0.900000E-01   1.00800           0
     10971 MEMB     95       SAPC     H11Y     HAL2     0.900000E-01   1.00800           0
     10972 MEMB     95       SAPC     C312     CTL2    -0.180000       12.0110           0
     10973 MEMB     95       SAPC     H12X     HAL2     0.900000E-01   1.00800           0
     10974 MEMB     95       SAPC     H12Y     HAL2     0.900000E-01   1.00800           0
     10975 MEMB     95       SAPC     C313     CTL2    -0.180000       12.0110           0
     10976 MEMB     95       SAPC     H13X     HAL2     0.900000E-01   1.00800           0
     10977 MEMB     95       SAPC     H13Y     HAL2     0.900000E-01   1.00800           0
     10978 MEMB     95       SAPC     C314     CTL2    -0.180000       12.0110           0
     10979 MEMB     95       SAPC     H14X     HAL2     0.900000E-01   1.00800           0
     10980 MEMB     95       SAPC     H14Y     HAL2     0.900000E-01   1.00800           0
     10981 MEMB     95       SAPC     C315     CTL2    -0.180000       12.0110           0
     10982 MEMB     95       SAPC     H15X     HAL2     0.900000E-01   1.00800           0
     10983 MEMB     95       SAPC     H15Y     HAL2     0.900000E-01   1.00800           0
     10984 MEMB     95       SAPC     C316     CTL2    -0.180000       12.0110           0
     10985 MEMB     95       SAPC     H16X     HAL2     0.900000E-01   1.00800           0
     10986 MEMB     95       SAPC     H16Y     HAL2     0.900000E-01   1.00800           0
     10987 MEMB     95       SAPC     C317     CTL2    -0.180000       12.0110           0
     10988 MEMB     95       SAPC     H17X     HAL2     0.900000E-01   1.00800           0
     10989 MEMB     95       SAPC     H17Y     HAL2     0.900000E-01   1.00800           0
     10990 MEMB     95       SAPC     C318     CTL3    -0.270000       12.0110           0
     10991 MEMB     95       SAPC     H18X     HAL3     0.900000E-01   1.00800           0
     10992 MEMB     95       SAPC     H18Y     HAL3     0.900000E-01   1.00800           0
     10993 MEMB     95       SAPC     H18Z     HAL3     0.900000E-01   1.00800           0
     10994 MEMB     96       SAPS     N        NH3L    -0.300000       14.0070           0
     10995 MEMB     96       SAPS     HN1      HCL      0.330000       1.00800           0
     10996 MEMB     96       SAPS     HN2      HCL      0.330000       1.00800           0
     10997 MEMB     96       SAPS     HN3      HCL      0.330000       1.00800           0
     10998 MEMB     96       SAPS     C12      CTL1     0.210000       12.0110           0
     10999 MEMB     96       SAPS     H12A     HBL      0.100000       1.00800           0
     11000 MEMB     96       SAPS     C13      CCL      0.340000       12.0110           0
     11001 MEMB     96       SAPS     O13A     OCL     -0.670000       15.9994           0
     11002 MEMB     96       SAPS     O13B     OCL     -0.670000       15.9994           0
     11003 MEMB     96       SAPS     C11      CTL2    -0.800000E-01   12.0110           0
     11004 MEMB     96       SAPS     H11A     HAL2     0.900000E-01   1.00800           0
     11005 MEMB     96       SAPS     H11B     HAL2     0.900000E-01   1.00800           0
     11006 MEMB     96       SAPS     P        PL        1.50000       30.9740           0
     11007 MEMB     96       SAPS     O13      O2L     -0.780000       15.9994           0
     11008 MEMB     96       SAPS     O14      O2L     -0.780000       15.9994           0
     11009 MEMB     96       SAPS     O12      OSLP    -0.570000       15.9994           0
     11010 MEMB     96       SAPS     O11      OSLP    -0.570000       15.9994           0
     11011 MEMB     96       SAPS     C1       CTL2    -0.800000E-01   12.0110           0
     11012 MEMB     96       SAPS     HA       HAL2     0.900000E-01   1.00800           0
     11013 MEMB     96       SAPS     HB       HAL2     0.900000E-01   1.00800           0
     11014 MEMB     96       SAPS     C2       CTL1     0.170000       12.0110           0
     11015 MEMB     96       SAPS     HS       HAL1     0.900000E-01   1.00800           0
     11016 MEMB     96       SAPS     O21      OSL     -0.490000       15.9994           0
     11017 MEMB     96       SAPS     C21      CL       0.900000       12.0110           0
     11018 MEMB     96       SAPS     O22      OBL     -0.630000       15.9994           0
     11019 MEMB     96       SAPS     C22      CTL2    -0.220000       12.0110           0
     11020 MEMB     96       SAPS     H2R      HAL2     0.900000E-01   1.00800           0
     11021 MEMB     96       SAPS     H2S      HAL2     0.900000E-01   1.00800           0
     11022 MEMB     96       SAPS     C3       CTL2     0.800000E-01   12.0110           0
     11023 MEMB     96       SAPS     HX       HAL2     0.900000E-01   1.00800           0
     11024 MEMB     96       SAPS     HY       HAL2     0.900000E-01   1.00800           0
     11025 MEMB     96       SAPS     O31      OSL     -0.490000       15.9994           0
     11026 MEMB     96       SAPS     C31      CL       0.900000       12.0110           0
     11027 MEMB     96       SAPS     O32      OBL     -0.630000       15.9994           0
     11028 MEMB     96       SAPS     C32      CTL2    -0.220000       12.0110           0
     11029 MEMB     96       SAPS     H2X      HAL2     0.900000E-01   1.00800           0
     11030 MEMB     96       SAPS     H2Y      HAL2     0.900000E-01   1.00800           0
     11031 MEMB     96       SAPS     C23      CTL2    -0.180000       12.0110           0
     11032 MEMB     96       SAPS     H3R      HAL2     0.900000E-01   1.00800           0
     11033 MEMB     96       SAPS     H3S      HAL2     0.900000E-01   1.00800           0
     11034 MEMB     96       SAPS     C24      CTL2    -0.180000       12.0110           0
     11035 MEMB     96       SAPS     H4R      HAL2     0.900000E-01   1.00800           0
     11036 MEMB     96       SAPS     H4S      HAL2     0.900000E-01   1.00800           0
     11037 MEMB     96       SAPS     C25      CEL1    -0.150000       12.0110           0
     11038 MEMB     96       SAPS     H5R      HEL1     0.150000       1.00800           0
     11039 MEMB     96       SAPS     C26      CEL1    -0.150000       12.0110           0
     11040 MEMB     96       SAPS     H6R      HEL1     0.150000       1.00800           0
     11041 MEMB     96       SAPS     C27      CTL2    -0.180000       12.0110           0
     11042 MEMB     96       SAPS     H7R      HAL2     0.900000E-01   1.00800           0
     11043 MEMB     96       SAPS     H7S      HAL2     0.900000E-01   1.00800           0
     11044 MEMB     96       SAPS     C28      CEL1    -0.150000       12.0110           0
     11045 MEMB     96       SAPS     H8R      HEL1     0.150000       1.00800           0
     11046 MEMB     96       SAPS     C29      CEL1    -0.150000       12.0110           0
     11047 MEMB     96       SAPS     H9R      HEL1     0.150000       1.00800           0
     11048 MEMB     96       SAPS     C210     CTL2    -0.180000       12.0110           0
     11049 MEMB     96       SAPS     H10R     HAL2     0.900000E-01   1.00800           0
     11050 MEMB     96       SAPS     H10S     HAL2     0.900000E-01   1.00800           0
     11051 MEMB     96       SAPS     C211     CEL1    -0.150000       12.0110           0
     11052 MEMB     96       SAPS     H11R     HEL1     0.150000       1.00800           0
     11053 MEMB     96       SAPS     C212     CEL1    -0.150000       12.0110           0
     11054 MEMB     96       SAPS     H12R     HEL1     0.150000       1.00800           0
     11055 MEMB     96       SAPS     C213     CTL2    -0.180000       12.0110           0
     11056 MEMB     96       SAPS     H13R     HAL2     0.900000E-01   1.00800           0
     11057 MEMB     96       SAPS     H13S     HAL2     0.900000E-01   1.00800           0
     11058 MEMB     96       SAPS     C214     CEL1    -0.150000       12.0110           0
     11059 MEMB     96       SAPS     H14R     HEL1     0.150000       1.00800           0
     11060 MEMB     96       SAPS     C215     CEL1    -0.150000       12.0110           0
     11061 MEMB     96       SAPS     H15R     HEL1     0.150000       1.00800           0
     11062 MEMB     96       SAPS     C216     CTL2    -0.180000       12.0110           0
     11063 MEMB     96       SAPS     H16R     HAL2     0.900000E-01   1.00800           0
     11064 MEMB     96       SAPS     H16S     HAL2     0.900000E-01   1.00800           0
     11065 MEMB     96       SAPS     C217     CTL2    -0.180000       12.0110           0
     11066 MEMB     96       SAPS     H17R     HAL2     0.900000E-01   1.00800           0
     11067 MEMB     96       SAPS     H17S     HAL2     0.900000E-01   1.00800           0
     11068 MEMB     96       SAPS     C218     CTL2    -0.180000       12.0110           0
     11069 MEMB     96       SAPS     H18R     HAL2     0.900000E-01   1.00800           0
     11070 MEMB     96       SAPS     H18S     HAL2     0.900000E-01   1.00800           0
     11071 MEMB     96       SAPS     C219     CTL2    -0.180000       12.0110           0
     11072 MEMB     96       SAPS     H19R     HAL2     0.900000E-01   1.00800           0
     11073 MEMB     96       SAPS     H19S     HAL2     0.900000E-01   1.00800           0
     11074 MEMB     96       SAPS     C220     CTL3    -0.270000       12.0110           0
     11075 MEMB     96       SAPS     H20R     HAL3     0.900000E-01   1.00800           0
     11076 MEMB     96       SAPS     H20S     HAL3     0.900000E-01   1.00800           0
     11077 MEMB     96       SAPS     H20T     HAL3     0.900000E-01   1.00800           0
     11078 MEMB     96       SAPS     C33      CTL2    -0.180000       12.0110           0
     11079 MEMB     96       SAPS     H3X      HAL2     0.900000E-01   1.00800           0
     11080 MEMB     96       SAPS     H3Y      HAL2     0.900000E-01   1.00800           0
     11081 MEMB     96       SAPS     C34      CTL2    -0.180000       12.0110           0
     11082 MEMB     96       SAPS     H4X      HAL2     0.900000E-01   1.00800           0
     11083 MEMB     96       SAPS     H4Y      HAL2     0.900000E-01   1.00800           0
     11084 MEMB     96       SAPS     C35      CTL2    -0.180000       12.0110           0
     11085 MEMB     96       SAPS     H5X      HAL2     0.900000E-01   1.00800           0
     11086 MEMB     96       SAPS     H5Y      HAL2     0.900000E-01   1.00800           0
     11087 MEMB     96       SAPS     C36      CTL2    -0.180000       12.0110           0
     11088 MEMB     96       SAPS     H6X      HAL2     0.900000E-01   1.00800           0
     11089 MEMB     96       SAPS     H6Y      HAL2     0.900000E-01   1.00800           0
     11090 MEMB     96       SAPS     C37      CTL2    -0.180000       12.0110           0
     11091 MEMB     96       SAPS     H7X      HAL2     0.900000E-01   1.00800           0
     11092 MEMB     96       SAPS     H7Y      HAL2     0.900000E-01   1.00800           0
     11093 MEMB     96       SAPS     C38      CTL2    -0.180000       12.0110           0
     11094 MEMB     96       SAPS     H8X      HAL2     0.900000E-01   1.00800           0
     11095 MEMB     96       SAPS     H8Y      HAL2     0.900000E-01   1.00800           0
     11096 MEMB     96       SAPS     C39      CTL2    -0.180000       12.0110           0
     11097 MEMB     96       SAPS     H9X      HAL2     0.900000E-01   1.00800           0
     11098 MEMB     96       SAPS     H9Y      HAL2     0.900000E-01   1.00800           0
     11099 MEMB     96       SAPS     C310     CTL2    -0.180000       12.0110           0
     11100 MEMB     96       SAPS     H10X     HAL2     0.900000E-01   1.00800           0
     11101 MEMB     96       SAPS     H10Y     HAL2     0.900000E-01   1.00800           0
     11102 MEMB     96       SAPS     C311     CTL2    -0.180000       12.0110           0
     11103 MEMB     96       SAPS     H11X     HAL2     0.900000E-01   1.00800           0
     11104 MEMB     96       SAPS     H11Y     HAL2     0.900000E-01   1.00800           0
     11105 MEMB     96       SAPS     C312     CTL2    -0.180000       12.0110           0
     11106 MEMB     96       SAPS     H12X     HAL2     0.900000E-01   1.00800           0
     11107 MEMB     96       SAPS     H12Y     HAL2     0.900000E-01   1.00800           0
     11108 MEMB     96       SAPS     C313     CTL2    -0.180000       12.0110           0
     11109 MEMB     96       SAPS     H13X     HAL2     0.900000E-01   1.00800           0
     11110 MEMB     96       SAPS     H13Y     HAL2     0.900000E-01   1.00800           0
     11111 MEMB     96       SAPS     C314     CTL2    -0.180000       12.0110           0
     11112 MEMB     96       SAPS     H14X     HAL2     0.900000E-01   1.00800           0
     11113 MEMB     96       SAPS     H14Y     HAL2     0.900000E-01   1.00800           0
     11114 MEMB     96       SAPS     C315     CTL2    -0.180000       12.0110           0
     11115 MEMB     96       SAPS     H15X     HAL2     0.900000E-01   1.00800           0
     11116 MEMB     96       SAPS     H15Y     HAL2     0.900000E-01   1.00800           0
     11117 MEMB     96       SAPS     C316     CTL2    -0.180000       12.0110           0
     11118 MEMB     96       SAPS     H16X     HAL2     0.900000E-01   1.00800           0
     11119 MEMB     96       SAPS     H16Y     HAL2     0.900000E-01   1.00800           0
     11120 MEMB     96       SAPS     C317     CTL2    -0.180000       12.0110           0
     11121 MEMB     96       SAPS     H17X     HAL2     0.900000E-01   1.00800           0
     11122 MEMB     96       SAPS     H17Y     HAL2     0.900000E-01   1.00800           0
     11123 MEMB     96       SAPS     C318     CTL3    -0.270000       12.0110           0
     11124 MEMB     96       SAPS     H18X     HAL3     0.900000E-01   1.00800           0
     11125 MEMB     96       SAPS     H18Y     HAL3     0.900000E-01   1.00800           0
     11126 MEMB     96       SAPS     H18Z     HAL3     0.900000E-01   1.00800           0
     11127 MEMB     97       CHL1     C3       CRL1     0.140000       12.0110           0
     11128 MEMB     97       CHL1     H3       HGA1     0.900000E-01   1.00800           0
     11129 MEMB     97       CHL1     O3       OHL     -0.660000       15.9994           0
     11130 MEMB     97       CHL1     H3'      HOL      0.430000       1.00800           0
     11131 MEMB     97       CHL1     C4       CRL2    -0.180000       12.0110           0
     11132 MEMB     97       CHL1     H4A      HGA2     0.900000E-01   1.00800           0
     11133 MEMB     97       CHL1     H4B      HGA2     0.900000E-01   1.00800           0
     11134 MEMB     97       CHL1     C5       CEL1      0.00000       12.0110           0
     11135 MEMB     97       CHL1     C6       CEL1    -0.150000       12.0110           0
     11136 MEMB     97       CHL1     H6       HEL1     0.150000       1.00800           0
     11137 MEMB     97       CHL1     C7       CRL2    -0.180000       12.0110           0
     11138 MEMB     97       CHL1     H7A      HGA2     0.900000E-01   1.00800           0
     11139 MEMB     97       CHL1     H7B      HGA2     0.900000E-01   1.00800           0
     11140 MEMB     97       CHL1     C8       CRL1    -0.900000E-01   12.0110           0
     11141 MEMB     97       CHL1     H8       HGA1     0.900000E-01   1.00800           0
     11142 MEMB     97       CHL1     C14      CRL1    -0.900000E-01   12.0110           0
     11143 MEMB     97       CHL1     H14      HGA1     0.900000E-01   1.00800           0
     11144 MEMB     97       CHL1     C15      CRL2    -0.180000       12.0110           0
     11145 MEMB     97       CHL1     H15A     HGA2     0.900000E-01   1.00800           0
     11146 MEMB     97       CHL1     H15B     HGA2     0.900000E-01   1.00800           0
     11147 MEMB     97       CHL1     C16      CRL2    -0.180000       12.0110           0
     11148 MEMB     97       CHL1     H16A     HGA2     0.900000E-01   1.00800           0
     11149 MEMB     97       CHL1     H16B     HGA2     0.900000E-01   1.00800           0
     11150 MEMB     97       CHL1     C17      CRL1    -0.900000E-01   12.0110           0
     11151 MEMB     97       CHL1     H17      HGA1     0.900000E-01   1.00800           0
     11152 MEMB     97       CHL1     C13      CRL1      0.00000       12.0110           0
     11153 MEMB     97       CHL1     C18      CTL3    -0.270000       12.0110           0
     11154 MEMB     97       CHL1     H18A     HAL3     0.900000E-01   1.00800           0
     11155 MEMB     97       CHL1     H18B     HAL3     0.900000E-01   1.00800           0
     11156 MEMB     97       CHL1     H18C     HAL3     0.900000E-01   1.00800           0
     11157 MEMB     97       CHL1     C12      CRL2    -0.180000       12.0110           0
     11158 MEMB     97       CHL1     H12A     HGA2     0.900000E-01   1.00800           0
     11159 MEMB     97       CHL1     H12B     HGA2     0.900000E-01   1.00800           0
     11160 MEMB     97       CHL1     C11      CRL2    -0.180000       12.0110           0
     11161 MEMB     97       CHL1     H11A     HGA2     0.900000E-01   1.00800           0
     11162 MEMB     97       CHL1     H11B     HGA2     0.900000E-01   1.00800           0
     11163 MEMB     97       CHL1     C9       CRL1    -0.900000E-01   12.0110           0
     11164 MEMB     97       CHL1     H9       HGA1     0.900000E-01   1.00800           0
     11165 MEMB     97       CHL1     C10      CRL1      0.00000       12.0110           0
     11166 MEMB     97       CHL1     C19      CTL3    -0.270000       12.0110           0
     11167 MEMB     97       CHL1     H19A     HAL3     0.900000E-01   1.00800           0
     11168 MEMB     97       CHL1     H19B     HAL3     0.900000E-01   1.00800           0
     11169 MEMB     97       CHL1     H19C     HAL3     0.900000E-01   1.00800           0
     11170 MEMB     97       CHL1     C1       CRL2    -0.180000       12.0110           0
     11171 MEMB     97       CHL1     H1A      HGA2     0.900000E-01   1.00800           0
     11172 MEMB     97       CHL1     H1B      HGA2     0.900000E-01   1.00800           0
     11173 MEMB     97       CHL1     C2       CRL2    -0.180000       12.0110           0
     11174 MEMB     97       CHL1     H2A      HGA2     0.900000E-01   1.00800           0
     11175 MEMB     97       CHL1     H2B      HGA2     0.900000E-01   1.00800           0
     11176 MEMB     97       CHL1     C20      CTL1    -0.900000E-01   12.0110           0
     11177 MEMB     97       CHL1     H20      HAL1     0.900000E-01   1.00800           0
     11178 MEMB     97       CHL1     C21      CTL3    -0.270000       12.0110           0
     11179 MEMB     97       CHL1     H21A     HAL3     0.900000E-01   1.00800           0
     11180 MEMB     97       CHL1     H21B     HAL3     0.900000E-01   1.00800           0
     11181 MEMB     97       CHL1     H21C     HAL3     0.900000E-01   1.00800           0
     11182 MEMB     97       CHL1     C22      CTL2    -0.180000       12.0110           0
     11183 MEMB     97       CHL1     H22A     HAL2     0.900000E-01   1.00800           0
     11184 MEMB     97       CHL1     H22B     HAL2     0.900000E-01   1.00800           0
     11185 MEMB     97       CHL1     C23      CTL2    -0.180000       12.0110           0
     11186 MEMB     97       CHL1     H23A     HAL2     0.900000E-01   1.00800           0
     11187 MEMB     97       CHL1     H23B     HAL2     0.900000E-01   1.00800           0
     11188 MEMB     97       CHL1     C24      CTL2    -0.180000       12.0110           0
     11189 MEMB     97       CHL1     H24A     HAL2     0.900000E-01   1.00800           0
     11190 MEMB     97       CHL1     H24B     HAL2     0.900000E-01   1.00800           0
     11191 MEMB     97       CHL1     C25      CTL1    -0.900000E-01   12.0110           0
     11192 MEMB     97       CHL1     H25      HAL1     0.900000E-01   1.00800           0
     11193 MEMB     97       CHL1     C26      CTL3    -0.270000       12.0110           0
     11194 MEMB     97       CHL1     H26A     HAL3     0.900000E-01   1.00800           0
     11195 MEMB     97       CHL1     H26B     HAL3     0.900000E-01   1.00800           0
     11196 MEMB     97       CHL1     H26C     HAL3     0.900000E-01   1.00800           0
     11197 MEMB     97       CHL1     C27      CTL3    -0.270000       12.0110           0
     11198 MEMB     97       CHL1     H27A     HAL3     0.900000E-01   1.00800           0
     11199 MEMB     97       CHL1     H27B     HAL3     0.900000E-01   1.00800           0
     11200 MEMB     97       CHL1     H27C     HAL3     0.900000E-01   1.00800           0
     11201 MEMB     98       OSM      N        NTL     -0.600000       14.0070           0
     11202 MEMB     98       OSM      C15      CTL5    -0.350000       12.0110           0
     11203 MEMB     98       OSM      H15A     HL       0.250000       1.00800           0
     11204 MEMB     98       OSM      H15B     HL       0.250000       1.00800           0
     11205 MEMB     98       OSM      H15C     HL       0.250000       1.00800           0
     11206 MEMB     98       OSM      C14      CTL5    -0.350000       12.0110           0
     11207 MEMB     98       OSM      H14A     HL       0.250000       1.00800           0
     11208 MEMB     98       OSM      H14B     HL       0.250000       1.00800           0
     11209 MEMB     98       OSM      H14C     HL       0.250000       1.00800           0
     11210 MEMB     98       OSM      C13      CTL5    -0.350000       12.0110           0
     11211 MEMB     98       OSM      H13A     HL       0.250000       1.00800           0
     11212 MEMB     98       OSM      H13B     HL       0.250000       1.00800           0
     11213 MEMB     98       OSM      H13C     HL       0.250000       1.00800           0
     11214 MEMB     98       OSM      C12      CTL2    -0.100000       12.0110           0
     11215 MEMB     98       OSM      H12A     HL       0.250000       1.00800           0
     11216 MEMB     98       OSM      H12B     HL       0.250000       1.00800           0
     11217 MEMB     98       OSM      C11      CTL2    -0.800000E-01   12.0110           0
     11218 MEMB     98       OSM      H11A     HAL2     0.900000E-01   1.00800           0
     11219 MEMB     98       OSM      H11B     HAL2     0.900000E-01   1.00800           0
     11220 MEMB     98       OSM      P        PL        1.50000       30.9740           0
     11221 MEMB     98       OSM      O13      O2L     -0.780000       15.9994           0
     11222 MEMB     98       OSM      O14      O2L     -0.780000       15.9994           0
     11223 MEMB     98       OSM      O11      OSLP    -0.570000       15.9994           0
     11224 MEMB     98       OSM      O12      OSLP    -0.570000       15.9994           0
     11225 MEMB     98       OSM      C1S      CTL2    -0.800000E-01   12.0110           0
     11226 MEMB     98       OSM      H1S      HAL2     0.900000E-01   1.00800           0
     11227 MEMB     98       OSM      H1T      HAL2     0.900000E-01   1.00800           0
     11228 MEMB     98       OSM      NF       NHL     -0.700000       14.0070           0
     11229 MEMB     98       OSM      HNF      H        0.350000       1.00800           0
     11230 MEMB     98       OSM      C2S      CTL1     0.300000       12.0110           0
     11231 MEMB     98       OSM      H2S      HAL1     0.500000E-01   1.00800           0
     11232 MEMB     98       OSM      C3S      CTO1     0.500000       12.0110           0
     11233 MEMB     98       OSM      H3S      HAL1    -0.110000       1.00800           0
     11234 MEMB     98       OSM      O3       OHL     -0.690000       15.9994           0
     11235 MEMB     98       OSM      HO3      HOL      0.300000       1.00800           0
     11236 MEMB     98       OSM      C4S      CEL3    -0.150000       12.0110           0
     11237 MEMB     98       OSM      H4S      HEL1     0.150000       1.00800           0
     11238 MEMB     98       OSM      C5S      CEL3    -0.150000       12.0110           0
     11239 MEMB     98       OSM      H5S      HEL1     0.150000       1.00800           0
     11240 MEMB     98       OSM      C6S      CTL2    -0.180000       12.0110           0
     11241 MEMB     98       OSM      H6S      HAL2     0.900000E-01   1.00800           0
     11242 MEMB     98       OSM      H6T      HAL2     0.900000E-01   1.00800           0
     11243 MEMB     98       OSM      C7S      CTL2    -0.180000       12.0110           0
     11244 MEMB     98       OSM      H7S      HAL2     0.900000E-01   1.00800           0
     11245 MEMB     98       OSM      H7T      HAL2     0.900000E-01   1.00800           0
     11246 MEMB     98       OSM      C8S      CTL2    -0.180000       12.0110           0
     11247 MEMB     98       OSM      H8S      HAL2     0.900000E-01   1.00800           0
     11248 MEMB     98       OSM      H8T      HAL2     0.900000E-01   1.00800           0
     11249 MEMB     98       OSM      C9S      CTL2    -0.180000       12.0110           0
     11250 MEMB     98       OSM      H9S      HAL2     0.900000E-01   1.00800           0
     11251 MEMB     98       OSM      H9T      HAL2     0.900000E-01   1.00800           0
     11252 MEMB     98       OSM      C10S     CTL2    -0.180000       12.0110           0
     11253 MEMB     98       OSM      H10S     HAL2     0.900000E-01   1.00800           0
     11254 MEMB     98       OSM      H10T     HAL2     0.900000E-01   1.00800           0
     11255 MEMB     98       OSM      C11S     CTL2    -0.180000       12.0110           0
     11256 MEMB     98       OSM      H11S     HAL2     0.900000E-01   1.00800           0
     11257 MEMB     98       OSM      H11T     HAL2     0.900000E-01   1.00800           0
     11258 MEMB     98       OSM      C12S     CTL2    -0.180000       12.0110           0
     11259 MEMB     98       OSM      H12S     HAL2     0.900000E-01   1.00800           0
     11260 MEMB     98       OSM      H12T     HAL2     0.900000E-01   1.00800           0
     11261 MEMB     98       OSM      C13S     CTL2    -0.180000       12.0110           0
     11262 MEMB     98       OSM      H13S     HAL2     0.900000E-01   1.00800           0
     11263 MEMB     98       OSM      H13T     HAL2     0.900000E-01   1.00800           0
     11264 MEMB     98       OSM      C14S     CTL2    -0.180000       12.0110           0
     11265 MEMB     98       OSM      H14S     HAL2     0.900000E-01   1.00800           0
     11266 MEMB     98       OSM      H14T     HAL2     0.900000E-01   1.00800           0
     11267 MEMB     98       OSM      C15S     CTL2    -0.180000       12.0110           0
     11268 MEMB     98       OSM      H15S     HAL2     0.900000E-01   1.00800           0
     11269 MEMB     98       OSM      H15T     HAL2     0.900000E-01   1.00800           0
     11270 MEMB     98       OSM      C16S     CTL2    -0.180000       12.0110           0
     11271 MEMB     98       OSM      H16S     HAL2     0.900000E-01   1.00800           0
     11272 MEMB     98       OSM      H16T     HAL2     0.900000E-01   1.00800           0
     11273 MEMB     98       OSM      C17S     CTL2    -0.180000       12.0110           0
     11274 MEMB     98       OSM      H17S     HAL2     0.900000E-01   1.00800           0
     11275 MEMB     98       OSM      H17T     HAL2     0.900000E-01   1.00800           0
     11276 MEMB     98       OSM      C18S     CTL3    -0.270000       12.0110           0
     11277 MEMB     98       OSM      H18S     HAL3     0.900000E-01   1.00800           0
     11278 MEMB     98       OSM      H18T     HAL3     0.900000E-01   1.00800           0
     11279 MEMB     98       OSM      H18U     HAL3     0.900000E-01   1.00800           0
     11280 MEMB     98       OSM      C1F      C        0.550000       12.0110           0
     11281 MEMB     98       OSM      OF       O       -0.600000       15.9994           0
     11282 MEMB     98       OSM      C2F      CTL2    -0.700000E-01   12.0110           0
     11283 MEMB     98       OSM      H2F      HAL2     0.600000E-01   1.00800           0
     11284 MEMB     98       OSM      H2G      HAL2     0.600000E-01   1.00800           0
     11285 MEMB     98       OSM      C3F      CTL2    -0.180000       12.0110           0
     11286 MEMB     98       OSM      H3F      HAL2     0.900000E-01   1.00800           0
     11287 MEMB     98       OSM      H3G      HAL2     0.900000E-01   1.00800           0
     11288 MEMB     98       OSM      C4F      CTL2    -0.180000       12.0110           0
     11289 MEMB     98       OSM      H4F      HAL2     0.900000E-01   1.00800           0
     11290 MEMB     98       OSM      H4G      HAL2     0.900000E-01   1.00800           0
     11291 MEMB     98       OSM      C5F      CTL2    -0.180000       12.0110           0
     11292 MEMB     98       OSM      H5F      HAL2     0.900000E-01   1.00800           0
     11293 MEMB     98       OSM      H5G      HAL2     0.900000E-01   1.00800           0
     11294 MEMB     98       OSM      C6F      CTL2    -0.180000       12.0110           0
     11295 MEMB     98       OSM      H6F      HAL2     0.900000E-01   1.00800           0
     11296 MEMB     98       OSM      H6G      HAL2     0.900000E-01   1.00800           0
     11297 MEMB     98       OSM      C7F      CTL2    -0.180000       12.0110           0
     11298 MEMB     98       OSM      H7F      HAL2     0.900000E-01   1.00800           0
     11299 MEMB     98       OSM      H7G      HAL2     0.900000E-01   1.00800           0
     11300 MEMB     98       OSM      C8F      CTL2    -0.180000       12.0110           0
     11301 MEMB     98       OSM      H8F      HAL2     0.900000E-01   1.00800           0
     11302 MEMB     98       OSM      H8G      HAL2     0.900000E-01   1.00800           0
     11303 MEMB     98       OSM      C9F      CEL1    -0.150000       12.0110           0
     11304 MEMB     98       OSM      H9F      HEL1     0.150000       1.00800           0
     11305 MEMB     98       OSM      C10F     CEL1    -0.150000       12.0110           0
     11306 MEMB     98       OSM      H10F     HEL1     0.150000       1.00800           0
     11307 MEMB     98       OSM      C11F     CTL2    -0.180000       12.0110           0
     11308 MEMB     98       OSM      H11F     HAL2     0.900000E-01   1.00800           0
     11309 MEMB     98       OSM      H11G     HAL2     0.900000E-01   1.00800           0
     11310 MEMB     98       OSM      C12F     CTL2    -0.180000       12.0110           0
     11311 MEMB     98       OSM      H12F     HAL2     0.900000E-01   1.00800           0
     11312 MEMB     98       OSM      H12G     HAL2     0.900000E-01   1.00800           0
     11313 MEMB     98       OSM      C13F     CTL2    -0.180000       12.0110           0
     11314 MEMB     98       OSM      H13F     HAL2     0.900000E-01   1.00800           0
     11315 MEMB     98       OSM      H13G     HAL2     0.900000E-01   1.00800           0
     11316 MEMB     98       OSM      C14F     CTL2    -0.180000       12.0110           0
     11317 MEMB     98       OSM      H14F     HAL2     0.900000E-01   1.00800           0
     11318 MEMB     98       OSM      H14G     HAL2     0.900000E-01   1.00800           0
     11319 MEMB     98       OSM      C15F     CTL2    -0.180000       12.0110           0
     11320 MEMB     98       OSM      H15F     HAL2     0.900000E-01   1.00800           0
     11321 MEMB     98       OSM      H15G     HAL2     0.900000E-01   1.00800           0
     11322 MEMB     98       OSM      C16F     CTL2    -0.180000       12.0110           0
     11323 MEMB     98       OSM      H16F     HAL2     0.900000E-01   1.00800           0
     11324 MEMB     98       OSM      H16G     HAL2     0.900000E-01   1.00800           0
     11325 MEMB     98       OSM      C17F     CTL2    -0.180000       12.0110           0
     11326 MEMB     98       OSM      H17F     HAL2     0.900000E-01   1.00800           0
     11327 MEMB     98       OSM      H17G     HAL2     0.900000E-01   1.00800           0
     11328 MEMB     98       OSM      C18F     CTL3    -0.270000       12.0110           0
     11329 MEMB     98       OSM      H18F     HAL3     0.900000E-01   1.00800           0
     11330 MEMB     98       OSM      H18G     HAL3     0.900000E-01   1.00800           0
     11331 MEMB     98       OSM      H18H     HAL3     0.900000E-01   1.00800           0
     11332 MEMB     99       SAPS     N        NH3L    -0.300000       14.0070           0
     11333 MEMB     99       SAPS     HN1      HCL      0.330000       1.00800           0
     11334 MEMB     99       SAPS     HN2      HCL      0.330000       1.00800           0
     11335 MEMB     99       SAPS     HN3      HCL      0.330000       1.00800           0
     11336 MEMB     99       SAPS     C12      CTL1     0.210000       12.0110           0
     11337 MEMB     99       SAPS     H12A     HBL      0.100000       1.00800           0
     11338 MEMB     99       SAPS     C13      CCL      0.340000       12.0110           0
     11339 MEMB     99       SAPS     O13A     OCL     -0.670000       15.9994           0
     11340 MEMB     99       SAPS     O13B     OCL     -0.670000       15.9994           0
     11341 MEMB     99       SAPS     C11      CTL2    -0.800000E-01   12.0110           0
     11342 MEMB     99       SAPS     H11A     HAL2     0.900000E-01   1.00800           0
     11343 MEMB     99       SAPS     H11B     HAL2     0.900000E-01   1.00800           0
     11344 MEMB     99       SAPS     P        PL        1.50000       30.9740           0
     11345 MEMB     99       SAPS     O13      O2L     -0.780000       15.9994           0
     11346 MEMB     99       SAPS     O14      O2L     -0.780000       15.9994           0
     11347 MEMB     99       SAPS     O12      OSLP    -0.570000       15.9994           0
     11348 MEMB     99       SAPS     O11      OSLP    -0.570000       15.9994           0
     11349 MEMB     99       SAPS     C1       CTL2    -0.800000E-01   12.0110           0
     11350 MEMB     99       SAPS     HA       HAL2     0.900000E-01   1.00800           0
     11351 MEMB     99       SAPS     HB       HAL2     0.900000E-01   1.00800           0
     11352 MEMB     99       SAPS     C2       CTL1     0.170000       12.0110           0
     11353 MEMB     99       SAPS     HS       HAL1     0.900000E-01   1.00800           0
     11354 MEMB     99       SAPS     O21      OSL     -0.490000       15.9994           0
     11355 MEMB     99       SAPS     C21      CL       0.900000       12.0110           0
     11356 MEMB     99       SAPS     O22      OBL     -0.630000       15.9994           0
     11357 MEMB     99       SAPS     C22      CTL2    -0.220000       12.0110           0
     11358 MEMB     99       SAPS     H2R      HAL2     0.900000E-01   1.00800           0
     11359 MEMB     99       SAPS     H2S      HAL2     0.900000E-01   1.00800           0
     11360 MEMB     99       SAPS     C3       CTL2     0.800000E-01   12.0110           0
     11361 MEMB     99       SAPS     HX       HAL2     0.900000E-01   1.00800           0
     11362 MEMB     99       SAPS     HY       HAL2     0.900000E-01   1.00800           0
     11363 MEMB     99       SAPS     O31      OSL     -0.490000       15.9994           0
     11364 MEMB     99       SAPS     C31      CL       0.900000       12.0110           0
     11365 MEMB     99       SAPS     O32      OBL     -0.630000       15.9994           0
     11366 MEMB     99       SAPS     C32      CTL2    -0.220000       12.0110           0
     11367 MEMB     99       SAPS     H2X      HAL2     0.900000E-01   1.00800           0
     11368 MEMB     99       SAPS     H2Y      HAL2     0.900000E-01   1.00800           0
     11369 MEMB     99       SAPS     C23      CTL2    -0.180000       12.0110           0
     11370 MEMB     99       SAPS     H3R      HAL2     0.900000E-01   1.00800           0
     11371 MEMB     99       SAPS     H3S      HAL2     0.900000E-01   1.00800           0
     11372 MEMB     99       SAPS     C24      CTL2    -0.180000       12.0110           0
     11373 MEMB     99       SAPS     H4R      HAL2     0.900000E-01   1.00800           0
     11374 MEMB     99       SAPS     H4S      HAL2     0.900000E-01   1.00800           0
     11375 MEMB     99       SAPS     C25      CEL1    -0.150000       12.0110           0
     11376 MEMB     99       SAPS     H5R      HEL1     0.150000       1.00800           0
     11377 MEMB     99       SAPS     C26      CEL1    -0.150000       12.0110           0
     11378 MEMB     99       SAPS     H6R      HEL1     0.150000       1.00800           0
     11379 MEMB     99       SAPS     C27      CTL2    -0.180000       12.0110           0
     11380 MEMB     99       SAPS     H7R      HAL2     0.900000E-01   1.00800           0
     11381 MEMB     99       SAPS     H7S      HAL2     0.900000E-01   1.00800           0
     11382 MEMB     99       SAPS     C28      CEL1    -0.150000       12.0110           0
     11383 MEMB     99       SAPS     H8R      HEL1     0.150000       1.00800           0
     11384 MEMB     99       SAPS     C29      CEL1    -0.150000       12.0110           0
     11385 MEMB     99       SAPS     H9R      HEL1     0.150000       1.00800           0
     11386 MEMB     99       SAPS     C210     CTL2    -0.180000       12.0110           0
     11387 MEMB     99       SAPS     H10R     HAL2     0.900000E-01   1.00800           0
     11388 MEMB     99       SAPS     H10S     HAL2     0.900000E-01   1.00800           0
     11389 MEMB     99       SAPS     C211     CEL1    -0.150000       12.0110           0
     11390 MEMB     99       SAPS     H11R     HEL1     0.150000       1.00800           0
     11391 MEMB     99       SAPS     C212     CEL1    -0.150000       12.0110           0
     11392 MEMB     99       SAPS     H12R     HEL1     0.150000       1.00800           0
     11393 MEMB     99       SAPS     C213     CTL2    -0.180000       12.0110           0
     11394 MEMB     99       SAPS     H13R     HAL2     0.900000E-01   1.00800           0
     11395 MEMB     99       SAPS     H13S     HAL2     0.900000E-01   1.00800           0
     11396 MEMB     99       SAPS     C214     CEL1    -0.150000       12.0110           0
     11397 MEMB     99       SAPS     H14R     HEL1     0.150000       1.00800           0
     11398 MEMB     99       SAPS     C215     CEL1    -0.150000       12.0110           0
     11399 MEMB     99       SAPS     H15R     HEL1     0.150000       1.00800           0
     11400 MEMB     99       SAPS     C216     CTL2    -0.180000       12.0110           0
     11401 MEMB     99       SAPS     H16R     HAL2     0.900000E-01   1.00800           0
     11402 MEMB     99       SAPS     H16S     HAL2     0.900000E-01   1.00800           0
     11403 MEMB     99       SAPS     C217     CTL2    -0.180000       12.0110           0
     11404 MEMB     99       SAPS     H17R     HAL2     0.900000E-01   1.00800           0
     11405 MEMB     99       SAPS     H17S     HAL2     0.900000E-01   1.00800           0
     11406 MEMB     99       SAPS     C218     CTL2    -0.180000       12.0110           0
     11407 MEMB     99       SAPS     H18R     HAL2     0.900000E-01   1.00800           0
     11408 MEMB     99       SAPS     H18S     HAL2     0.900000E-01   1.00800           0
     11409 MEMB     99       SAPS     C219     CTL2    -0.180000       12.0110           0
     11410 MEMB     99       SAPS     H19R     HAL2     0.900000E-01   1.00800           0
     11411 MEMB     99       SAPS     H19S     HAL2     0.900000E-01   1.00800           0
     11412 MEMB     99       SAPS     C220     CTL3    -0.270000       12.0110           0
     11413 MEMB     99       SAPS     H20R     HAL3     0.900000E-01   1.00800           0
     11414 MEMB     99       SAPS     H20S     HAL3     0.900000E-01   1.00800           0
     11415 MEMB     99       SAPS     H20T     HAL3     0.900000E-01   1.00800           0
     11416 MEMB     99       SAPS     C33      CTL2    -0.180000       12.0110           0
     11417 MEMB     99       SAPS     H3X      HAL2     0.900000E-01   1.00800           0
     11418 MEMB     99       SAPS     H3Y      HAL2     0.900000E-01   1.00800           0
     11419 MEMB     99       SAPS     C34      CTL2    -0.180000       12.0110           0
     11420 MEMB     99       SAPS     H4X      HAL2     0.900000E-01   1.00800           0
     11421 MEMB     99       SAPS     H4Y      HAL2     0.900000E-01   1.00800           0
     11422 MEMB     99       SAPS     C35      CTL2    -0.180000       12.0110           0
     11423 MEMB     99       SAPS     H5X      HAL2     0.900000E-01   1.00800           0
     11424 MEMB     99       SAPS     H5Y      HAL2     0.900000E-01   1.00800           0
     11425 MEMB     99       SAPS     C36      CTL2    -0.180000       12.0110           0
     11426 MEMB     99       SAPS     H6X      HAL2     0.900000E-01   1.00800           0
     11427 MEMB     99       SAPS     H6Y      HAL2     0.900000E-01   1.00800           0
     11428 MEMB     99       SAPS     C37      CTL2    -0.180000       12.0110           0
     11429 MEMB     99       SAPS     H7X      HAL2     0.900000E-01   1.00800           0
     11430 MEMB     99       SAPS     H7Y      HAL2     0.900000E-01   1.00800           0
     11431 MEMB     99       SAPS     C38      CTL2    -0.180000       12.0110           0
     11432 MEMB     99       SAPS     H8X      HAL2     0.900000E-01   1.00800           0
     11433 MEMB     99       SAPS     H8Y      HAL2     0.900000E-01   1.00800           0
     11434 MEMB     99       SAPS     C39      CTL2    -0.180000       12.0110           0
     11435 MEMB     99       SAPS     H9X      HAL2     0.900000E-01   1.00800           0
     11436 MEMB     99       SAPS     H9Y      HAL2     0.900000E-01   1.00800           0
     11437 MEMB     99       SAPS     C310     CTL2    -0.180000       12.0110           0
     11438 MEMB     99       SAPS     H10X     HAL2     0.900000E-01   1.00800           0
     11439 MEMB     99       SAPS     H10Y     HAL2     0.900000E-01   1.00800           0
     11440 MEMB     99       SAPS     C311     CTL2    -0.180000       12.0110           0
     11441 MEMB     99       SAPS     H11X     HAL2     0.900000E-01   1.00800           0
     11442 MEMB     99       SAPS     H11Y     HAL2     0.900000E-01   1.00800           0
     11443 MEMB     99       SAPS     C312     CTL2    -0.180000       12.0110           0
     11444 MEMB     99       SAPS     H12X     HAL2     0.900000E-01   1.00800           0
     11445 MEMB     99       SAPS     H12Y     HAL2     0.900000E-01   1.00800           0
     11446 MEMB     99       SAPS     C313     CTL2    -0.180000       12.0110           0
     11447 MEMB     99       SAPS     H13X     HAL2     0.900000E-01   1.00800           0
     11448 MEMB     99       SAPS     H13Y     HAL2     0.900000E-01   1.00800           0
     11449 MEMB     99       SAPS     C314     CTL2    -0.180000       12.0110           0
     11450 MEMB     99       SAPS     H14X     HAL2     0.900000E-01   1.00800           0
     11451 MEMB     99       SAPS     H14Y     HAL2     0.900000E-01   1.00800           0
     11452 MEMB     99       SAPS     C315     CTL2    -0.180000       12.0110           0
     11453 MEMB     99       SAPS     H15X     HAL2     0.900000E-01   1.00800           0
     11454 MEMB     99       SAPS     H15Y     HAL2     0.900000E-01   1.00800           0
     11455 MEMB     99       SAPS     C316     CTL2    -0.180000       12.0110           0
     11456 MEMB     99       SAPS     H16X     HAL2     0.900000E-01   1.00800           0
     11457 MEMB     99       SAPS     H16Y     HAL2     0.900000E-01   1.00800           0
     11458 MEMB     99       SAPS     C317     CTL2    -0.180000       12.0110           0
     11459 MEMB     99       SAPS     H17X     HAL2     0.900000E-01   1.00800           0
     11460 MEMB     99       SAPS     H17Y     HAL2     0.900000E-01   1.00800           0
     11461 MEMB     99       SAPS     C318     CTL3    -0.270000       12.0110           0
     11462 MEMB     99       SAPS     H18X     HAL3     0.900000E-01   1.00800           0
     11463 MEMB     99       SAPS     H18Y     HAL3     0.900000E-01   1.00800           0
     11464 MEMB     99       SAPS     H18Z     HAL3     0.900000E-01   1.00800           0
     11465 MEMB     100      SOPE     N        NH3L    -0.300000       14.0070           0
     11466 MEMB     100      SOPE     HN1      HCL      0.330000       1.00800           0
     11467 MEMB     100      SOPE     HN2      HCL      0.330000       1.00800           0
     11468 MEMB     100      SOPE     HN3      HCL      0.330000       1.00800           0
     11469 MEMB     100      SOPE     C12      CTL2     0.130000       12.0110           0
     11470 MEMB     100      SOPE     H12A     HAL2     0.900000E-01   1.00800           0
     11471 MEMB     100      SOPE     H12B     HAL2     0.900000E-01   1.00800           0
     11472 MEMB     100      SOPE     C11      CTL2    -0.800000E-01   12.0110           0
     11473 MEMB     100      SOPE     H11A     HAL2     0.900000E-01   1.00800           0
     11474 MEMB     100      SOPE     H11B     HAL2     0.900000E-01   1.00800           0
     11475 MEMB     100      SOPE     P        PL        1.50000       30.9740           0
     11476 MEMB     100      SOPE     O13      O2L     -0.780000       15.9994           0
     11477 MEMB     100      SOPE     O14      O2L     -0.780000       15.9994           0
     11478 MEMB     100      SOPE     O12      OSLP    -0.570000       15.9994           0
     11479 MEMB     100      SOPE     O11      OSLP    -0.570000       15.9994           0
     11480 MEMB     100      SOPE     C1       CTL2    -0.800000E-01   12.0110           0
     11481 MEMB     100      SOPE     HA       HAL2     0.900000E-01   1.00800           0
     11482 MEMB     100      SOPE     HB       HAL2     0.900000E-01   1.00800           0
     11483 MEMB     100      SOPE     C2       CTL1     0.170000       12.0110           0
     11484 MEMB     100      SOPE     HS       HAL1     0.900000E-01   1.00800           0
     11485 MEMB     100      SOPE     O21      OSL     -0.490000       15.9994           0
     11486 MEMB     100      SOPE     C21      CL       0.900000       12.0110           0
     11487 MEMB     100      SOPE     O22      OBL     -0.630000       15.9994           0
     11488 MEMB     100      SOPE     C22      CTL2    -0.220000       12.0110           0
     11489 MEMB     100      SOPE     H2R      HAL2     0.900000E-01   1.00800           0
     11490 MEMB     100      SOPE     H2S      HAL2     0.900000E-01   1.00800           0
     11491 MEMB     100      SOPE     C3       CTL2     0.800000E-01   12.0110           0
     11492 MEMB     100      SOPE     HX       HAL2     0.900000E-01   1.00800           0
     11493 MEMB     100      SOPE     HY       HAL2     0.900000E-01   1.00800           0
     11494 MEMB     100      SOPE     O31      OSL     -0.490000       15.9994           0
     11495 MEMB     100      SOPE     C31      CL       0.900000       12.0110           0
     11496 MEMB     100      SOPE     O32      OBL     -0.630000       15.9994           0
     11497 MEMB     100      SOPE     C32      CTL2    -0.220000       12.0110           0
     11498 MEMB     100      SOPE     H2X      HAL2     0.900000E-01   1.00800           0
     11499 MEMB     100      SOPE     H2Y      HAL2     0.900000E-01   1.00800           0
     11500 MEMB     100      SOPE     C23      CTL2    -0.180000       12.0110           0
     11501 MEMB     100      SOPE     H3R      HAL2     0.900000E-01   1.00800           0
     11502 MEMB     100      SOPE     H3S      HAL2     0.900000E-01   1.00800           0
     11503 MEMB     100      SOPE     C24      CTL2    -0.180000       12.0110           0
     11504 MEMB     100      SOPE     H4R      HAL2     0.900000E-01   1.00800           0
     11505 MEMB     100      SOPE     H4S      HAL2     0.900000E-01   1.00800           0
     11506 MEMB     100      SOPE     C25      CTL2    -0.180000       12.0110           0
     11507 MEMB     100      SOPE     H5R      HAL2     0.900000E-01   1.00800           0
     11508 MEMB     100      SOPE     H5S      HAL2     0.900000E-01   1.00800           0
     11509 MEMB     100      SOPE     C26      CTL2    -0.180000       12.0110           0
     11510 MEMB     100      SOPE     H6R      HAL2     0.900000E-01   1.00800           0
     11511 MEMB     100      SOPE     H6S      HAL2     0.900000E-01   1.00800           0
     11512 MEMB     100      SOPE     C27      CTL2    -0.180000       12.0110           0
     11513 MEMB     100      SOPE     H7R      HAL2     0.900000E-01   1.00800           0
     11514 MEMB     100      SOPE     H7S      HAL2     0.900000E-01   1.00800           0
     11515 MEMB     100      SOPE     C28      CTL2    -0.180000       12.0110           0
     11516 MEMB     100      SOPE     H8R      HAL2     0.900000E-01   1.00800           0
     11517 MEMB     100      SOPE     H8S      HAL2     0.900000E-01   1.00800           0
     11518 MEMB     100      SOPE     C29      CEL1    -0.150000       12.0110           0
     11519 MEMB     100      SOPE     H91      HEL1     0.150000       1.00800           0
     11520 MEMB     100      SOPE     C210     CEL1    -0.150000       12.0110           0
     11521 MEMB     100      SOPE     H101     HEL1     0.150000       1.00800           0
     11522 MEMB     100      SOPE     C211     CTL2    -0.180000       12.0110           0
     11523 MEMB     100      SOPE     H11R     HAL2     0.900000E-01   1.00800           0
     11524 MEMB     100      SOPE     H11S     HAL2     0.900000E-01   1.00800           0
     11525 MEMB     100      SOPE     C212     CTL2    -0.180000       12.0110           0
     11526 MEMB     100      SOPE     H12R     HAL2     0.900000E-01   1.00800           0
     11527 MEMB     100      SOPE     H12S     HAL2     0.900000E-01   1.00800           0
     11528 MEMB     100      SOPE     C213     CTL2    -0.180000       12.0110           0
     11529 MEMB     100      SOPE     H13R     HAL2     0.900000E-01   1.00800           0
     11530 MEMB     100      SOPE     H13S     HAL2     0.900000E-01   1.00800           0
     11531 MEMB     100      SOPE     C214     CTL2    -0.180000       12.0110           0
     11532 MEMB     100      SOPE     H14R     HAL2     0.900000E-01   1.00800           0
     11533 MEMB     100      SOPE     H14S     HAL2     0.900000E-01   1.00800           0
     11534 MEMB     100      SOPE     C215     CTL2    -0.180000       12.0110           0
     11535 MEMB     100      SOPE     H15R     HAL2     0.900000E-01   1.00800           0
     11536 MEMB     100      SOPE     H15S     HAL2     0.900000E-01   1.00800           0
     11537 MEMB     100      SOPE     C216     CTL2    -0.180000       12.0110           0
     11538 MEMB     100      SOPE     H16R     HAL2     0.900000E-01   1.00800           0
     11539 MEMB     100      SOPE     H16S     HAL2     0.900000E-01   1.00800           0
     11540 MEMB     100      SOPE     C217     CTL2    -0.180000       12.0110           0
     11541 MEMB     100      SOPE     H17R     HAL2     0.900000E-01   1.00800           0
     11542 MEMB     100      SOPE     H17S     HAL2     0.900000E-01   1.00800           0
     11543 MEMB     100      SOPE     C218     CTL3    -0.270000       12.0110           0
     11544 MEMB     100      SOPE     H18R     HAL3     0.900000E-01   1.00800           0
     11545 MEMB     100      SOPE     H18S     HAL3     0.900000E-01   1.00800           0
     11546 MEMB     100      SOPE     H18T     HAL3     0.900000E-01   1.00800           0
     11547 MEMB     100      SOPE     C33      CTL2    -0.180000       12.0110           0
     11548 MEMB     100      SOPE     H3X      HAL2     0.900000E-01   1.00800           0
     11549 MEMB     100      SOPE     H3Y      HAL2     0.900000E-01   1.00800           0
     11550 MEMB     100      SOPE     C34      CTL2    -0.180000       12.0110           0
     11551 MEMB     100      SOPE     H4X      HAL2     0.900000E-01   1.00800           0
     11552 MEMB     100      SOPE     H4Y      HAL2     0.900000E-01   1.00800           0
     11553 MEMB     100      SOPE     C35      CTL2    -0.180000       12.0110           0
     11554 MEMB     100      SOPE     H5X      HAL2     0.900000E-01   1.00800           0
     11555 MEMB     100      SOPE     H5Y      HAL2     0.900000E-01   1.00800           0
     11556 MEMB     100      SOPE     C36      CTL2    -0.180000       12.0110           0
     11557 MEMB     100      SOPE     H6X      HAL2     0.900000E-01   1.00800           0
     11558 MEMB     100      SOPE     H6Y      HAL2     0.900000E-01   1.00800           0
     11559 MEMB     100      SOPE     C37      CTL2    -0.180000       12.0110           0
     11560 MEMB     100      SOPE     H7X      HAL2     0.900000E-01   1.00800           0
     11561 MEMB     100      SOPE     H7Y      HAL2     0.900000E-01   1.00800           0
     11562 MEMB     100      SOPE     C38      CTL2    -0.180000       12.0110           0
     11563 MEMB     100      SOPE     H8X      HAL2     0.900000E-01   1.00800           0
     11564 MEMB     100      SOPE     H8Y      HAL2     0.900000E-01   1.00800           0
     11565 MEMB     100      SOPE     C39      CTL2    -0.180000       12.0110           0
     11566 MEMB     100      SOPE     H9X      HAL2     0.900000E-01   1.00800           0
     11567 MEMB     100      SOPE     H9Y      HAL2     0.900000E-01   1.00800           0
     11568 MEMB     100      SOPE     C310     CTL2    -0.180000       12.0110           0
     11569 MEMB     100      SOPE     H10X     HAL2     0.900000E-01   1.00800           0
     11570 MEMB     100      SOPE     H10Y     HAL2     0.900000E-01   1.00800           0
     11571 MEMB     100      SOPE     C311     CTL2    -0.180000       12.0110           0
     11572 MEMB     100      SOPE     H11X     HAL2     0.900000E-01   1.00800           0
     11573 MEMB     100      SOPE     H11Y     HAL2     0.900000E-01   1.00800           0
     11574 MEMB     100      SOPE     C312     CTL2    -0.180000       12.0110           0
     11575 MEMB     100      SOPE     H12X     HAL2     0.900000E-01   1.00800           0
     11576 MEMB     100      SOPE     H12Y     HAL2     0.900000E-01   1.00800           0
     11577 MEMB     100      SOPE     C313     CTL2    -0.180000       12.0110           0
     11578 MEMB     100      SOPE     H13X     HAL2     0.900000E-01   1.00800           0
     11579 MEMB     100      SOPE     H13Y     HAL2     0.900000E-01   1.00800           0
     11580 MEMB     100      SOPE     C314     CTL2    -0.180000       12.0110           0
     11581 MEMB     100      SOPE     H14X     HAL2     0.900000E-01   1.00800           0
     11582 MEMB     100      SOPE     H14Y     HAL2     0.900000E-01   1.00800           0
     11583 MEMB     100      SOPE     C315     CTL2    -0.180000       12.0110           0
     11584 MEMB     100      SOPE     H15X     HAL2     0.900000E-01   1.00800           0
     11585 MEMB     100      SOPE     H15Y     HAL2     0.900000E-01   1.00800           0
     11586 MEMB     100      SOPE     C316     CTL2    -0.180000       12.0110           0
     11587 MEMB     100      SOPE     H16X     HAL2     0.900000E-01   1.00800           0
     11588 MEMB     100      SOPE     H16Y     HAL2     0.900000E-01   1.00800           0
     11589 MEMB     100      SOPE     C317     CTL2    -0.180000       12.0110           0
     11590 MEMB     100      SOPE     H17X     HAL2     0.900000E-01   1.00800           0
     11591 MEMB     100      SOPE     H17Y     HAL2     0.900000E-01   1.00800           0
     11592 MEMB     100      SOPE     C318     CTL3    -0.270000       12.0110           0
     11593 MEMB     100      SOPE     H18X     HAL3     0.900000E-01   1.00800           0
     11594 MEMB     100      SOPE     H18Y     HAL3     0.900000E-01   1.00800           0
     11595 MEMB     100      SOPE     H18Z     HAL3     0.900000E-01   1.00800           0
     11596 MEMB     101      CHL1     C3       CRL1     0.140000       12.0110           0
     11597 MEMB     101      CHL1     H3       HGA1     0.900000E-01   1.00800           0
     11598 MEMB     101      CHL1     O3       OHL     -0.660000       15.9994           0
     11599 MEMB     101      CHL1     H3'      HOL      0.430000       1.00800           0
     11600 MEMB     101      CHL1     C4       CRL2    -0.180000       12.0110           0
     11601 MEMB     101      CHL1     H4A      HGA2     0.900000E-01   1.00800           0
     11602 MEMB     101      CHL1     H4B      HGA2     0.900000E-01   1.00800           0
     11603 MEMB     101      CHL1     C5       CEL1      0.00000       12.0110           0
     11604 MEMB     101      CHL1     C6       CEL1    -0.150000       12.0110           0
     11605 MEMB     101      CHL1     H6       HEL1     0.150000       1.00800           0
     11606 MEMB     101      CHL1     C7       CRL2    -0.180000       12.0110           0
     11607 MEMB     101      CHL1     H7A      HGA2     0.900000E-01   1.00800           0
     11608 MEMB     101      CHL1     H7B      HGA2     0.900000E-01   1.00800           0
     11609 MEMB     101      CHL1     C8       CRL1    -0.900000E-01   12.0110           0
     11610 MEMB     101      CHL1     H8       HGA1     0.900000E-01   1.00800           0
     11611 MEMB     101      CHL1     C14      CRL1    -0.900000E-01   12.0110           0
     11612 MEMB     101      CHL1     H14      HGA1     0.900000E-01   1.00800           0
     11613 MEMB     101      CHL1     C15      CRL2    -0.180000       12.0110           0
     11614 MEMB     101      CHL1     H15A     HGA2     0.900000E-01   1.00800           0
     11615 MEMB     101      CHL1     H15B     HGA2     0.900000E-01   1.00800           0
     11616 MEMB     101      CHL1     C16      CRL2    -0.180000       12.0110           0
     11617 MEMB     101      CHL1     H16A     HGA2     0.900000E-01   1.00800           0
     11618 MEMB     101      CHL1     H16B     HGA2     0.900000E-01   1.00800           0
     11619 MEMB     101      CHL1     C17      CRL1    -0.900000E-01   12.0110           0
     11620 MEMB     101      CHL1     H17      HGA1     0.900000E-01   1.00800           0
     11621 MEMB     101      CHL1     C13      CRL1      0.00000       12.0110           0
     11622 MEMB     101      CHL1     C18      CTL3    -0.270000       12.0110           0
     11623 MEMB     101      CHL1     H18A     HAL3     0.900000E-01   1.00800           0
     11624 MEMB     101      CHL1     H18B     HAL3     0.900000E-01   1.00800           0
     11625 MEMB     101      CHL1     H18C     HAL3     0.900000E-01   1.00800           0
     11626 MEMB     101      CHL1     C12      CRL2    -0.180000       12.0110           0
     11627 MEMB     101      CHL1     H12A     HGA2     0.900000E-01   1.00800           0
     11628 MEMB     101      CHL1     H12B     HGA2     0.900000E-01   1.00800           0
     11629 MEMB     101      CHL1     C11      CRL2    -0.180000       12.0110           0
     11630 MEMB     101      CHL1     H11A     HGA2     0.900000E-01   1.00800           0
     11631 MEMB     101      CHL1     H11B     HGA2     0.900000E-01   1.00800           0
     11632 MEMB     101      CHL1     C9       CRL1    -0.900000E-01   12.0110           0
     11633 MEMB     101      CHL1     H9       HGA1     0.900000E-01   1.00800           0
     11634 MEMB     101      CHL1     C10      CRL1      0.00000       12.0110           0
     11635 MEMB     101      CHL1     C19      CTL3    -0.270000       12.0110           0
     11636 MEMB     101      CHL1     H19A     HAL3     0.900000E-01   1.00800           0
     11637 MEMB     101      CHL1     H19B     HAL3     0.900000E-01   1.00800           0
     11638 MEMB     101      CHL1     H19C     HAL3     0.900000E-01   1.00800           0
     11639 MEMB     101      CHL1     C1       CRL2    -0.180000       12.0110           0
     11640 MEMB     101      CHL1     H1A      HGA2     0.900000E-01   1.00800           0
     11641 MEMB     101      CHL1     H1B      HGA2     0.900000E-01   1.00800           0
     11642 MEMB     101      CHL1     C2       CRL2    -0.180000       12.0110           0
     11643 MEMB     101      CHL1     H2A      HGA2     0.900000E-01   1.00800           0
     11644 MEMB     101      CHL1     H2B      HGA2     0.900000E-01   1.00800           0
     11645 MEMB     101      CHL1     C20      CTL1    -0.900000E-01   12.0110           0
     11646 MEMB     101      CHL1     H20      HAL1     0.900000E-01   1.00800           0
     11647 MEMB     101      CHL1     C21      CTL3    -0.270000       12.0110           0
     11648 MEMB     101      CHL1     H21A     HAL3     0.900000E-01   1.00800           0
     11649 MEMB     101      CHL1     H21B     HAL3     0.900000E-01   1.00800           0
     11650 MEMB     101      CHL1     H21C     HAL3     0.900000E-01   1.00800           0
     11651 MEMB     101      CHL1     C22      CTL2    -0.180000       12.0110           0
     11652 MEMB     101      CHL1     H22A     HAL2     0.900000E-01   1.00800           0
     11653 MEMB     101      CHL1     H22B     HAL2     0.900000E-01   1.00800           0
     11654 MEMB     101      CHL1     C23      CTL2    -0.180000       12.0110           0
     11655 MEMB     101      CHL1     H23A     HAL2     0.900000E-01   1.00800           0
     11656 MEMB     101      CHL1     H23B     HAL2     0.900000E-01   1.00800           0
     11657 MEMB     101      CHL1     C24      CTL2    -0.180000       12.0110           0
     11658 MEMB     101      CHL1     H24A     HAL2     0.900000E-01   1.00800           0
     11659 MEMB     101      CHL1     H24B     HAL2     0.900000E-01   1.00800           0
     11660 MEMB     101      CHL1     C25      CTL1    -0.900000E-01   12.0110           0
     11661 MEMB     101      CHL1     H25      HAL1     0.900000E-01   1.00800           0
     11662 MEMB     101      CHL1     C26      CTL3    -0.270000       12.0110           0
     11663 MEMB     101      CHL1     H26A     HAL3     0.900000E-01   1.00800           0
     11664 MEMB     101      CHL1     H26B     HAL3     0.900000E-01   1.00800           0
     11665 MEMB     101      CHL1     H26C     HAL3     0.900000E-01   1.00800           0
     11666 MEMB     101      CHL1     C27      CTL3    -0.270000       12.0110           0
     11667 MEMB     101      CHL1     H27A     HAL3     0.900000E-01   1.00800           0
     11668 MEMB     101      CHL1     H27B     HAL3     0.900000E-01   1.00800           0
     11669 MEMB     101      CHL1     H27C     HAL3     0.900000E-01   1.00800           0
     11670 MEMB     102      CHL1     C3       CRL1     0.140000       12.0110           0
     11671 MEMB     102      CHL1     H3       HGA1     0.900000E-01   1.00800           0
     11672 MEMB     102      CHL1     O3       OHL     -0.660000       15.9994           0
     11673 MEMB     102      CHL1     H3'      HOL      0.430000       1.00800           0
     11674 MEMB     102      CHL1     C4       CRL2    -0.180000       12.0110           0
     11675 MEMB     102      CHL1     H4A      HGA2     0.900000E-01   1.00800           0
     11676 MEMB     102      CHL1     H4B      HGA2     0.900000E-01   1.00800           0
     11677 MEMB     102      CHL1     C5       CEL1      0.00000       12.0110           0
     11678 MEMB     102      CHL1     C6       CEL1    -0.150000       12.0110           0
     11679 MEMB     102      CHL1     H6       HEL1     0.150000       1.00800           0
     11680 MEMB     102      CHL1     C7       CRL2    -0.180000       12.0110           0
     11681 MEMB     102      CHL1     H7A      HGA2     0.900000E-01   1.00800           0
     11682 MEMB     102      CHL1     H7B      HGA2     0.900000E-01   1.00800           0
     11683 MEMB     102      CHL1     C8       CRL1    -0.900000E-01   12.0110           0
     11684 MEMB     102      CHL1     H8       HGA1     0.900000E-01   1.00800           0
     11685 MEMB     102      CHL1     C14      CRL1    -0.900000E-01   12.0110           0
     11686 MEMB     102      CHL1     H14      HGA1     0.900000E-01   1.00800           0
     11687 MEMB     102      CHL1     C15      CRL2    -0.180000       12.0110           0
     11688 MEMB     102      CHL1     H15A     HGA2     0.900000E-01   1.00800           0
     11689 MEMB     102      CHL1     H15B     HGA2     0.900000E-01   1.00800           0
     11690 MEMB     102      CHL1     C16      CRL2    -0.180000       12.0110           0
     11691 MEMB     102      CHL1     H16A     HGA2     0.900000E-01   1.00800           0
     11692 MEMB     102      CHL1     H16B     HGA2     0.900000E-01   1.00800           0
     11693 MEMB     102      CHL1     C17      CRL1    -0.900000E-01   12.0110           0
     11694 MEMB     102      CHL1     H17      HGA1     0.900000E-01   1.00800           0
     11695 MEMB     102      CHL1     C13      CRL1      0.00000       12.0110           0
     11696 MEMB     102      CHL1     C18      CTL3    -0.270000       12.0110           0
     11697 MEMB     102      CHL1     H18A     HAL3     0.900000E-01   1.00800           0
     11698 MEMB     102      CHL1     H18B     HAL3     0.900000E-01   1.00800           0
     11699 MEMB     102      CHL1     H18C     HAL3     0.900000E-01   1.00800           0
     11700 MEMB     102      CHL1     C12      CRL2    -0.180000       12.0110           0
     11701 MEMB     102      CHL1     H12A     HGA2     0.900000E-01   1.00800           0
     11702 MEMB     102      CHL1     H12B     HGA2     0.900000E-01   1.00800           0
     11703 MEMB     102      CHL1     C11      CRL2    -0.180000       12.0110           0
     11704 MEMB     102      CHL1     H11A     HGA2     0.900000E-01   1.00800           0
     11705 MEMB     102      CHL1     H11B     HGA2     0.900000E-01   1.00800           0
     11706 MEMB     102      CHL1     C9       CRL1    -0.900000E-01   12.0110           0
     11707 MEMB     102      CHL1     H9       HGA1     0.900000E-01   1.00800           0
     11708 MEMB     102      CHL1     C10      CRL1      0.00000       12.0110           0
     11709 MEMB     102      CHL1     C19      CTL3    -0.270000       12.0110           0
     11710 MEMB     102      CHL1     H19A     HAL3     0.900000E-01   1.00800           0
     11711 MEMB     102      CHL1     H19B     HAL3     0.900000E-01   1.00800           0
     11712 MEMB     102      CHL1     H19C     HAL3     0.900000E-01   1.00800           0
     11713 MEMB     102      CHL1     C1       CRL2    -0.180000       12.0110           0
     11714 MEMB     102      CHL1     H1A      HGA2     0.900000E-01   1.00800           0
     11715 MEMB     102      CHL1     H1B      HGA2     0.900000E-01   1.00800           0
     11716 MEMB     102      CHL1     C2       CRL2    -0.180000       12.0110           0
     11717 MEMB     102      CHL1     H2A      HGA2     0.900000E-01   1.00800           0
     11718 MEMB     102      CHL1     H2B      HGA2     0.900000E-01   1.00800           0
     11719 MEMB     102      CHL1     C20      CTL1    -0.900000E-01   12.0110           0
     11720 MEMB     102      CHL1     H20      HAL1     0.900000E-01   1.00800           0
     11721 MEMB     102      CHL1     C21      CTL3    -0.270000       12.0110           0
     11722 MEMB     102      CHL1     H21A     HAL3     0.900000E-01   1.00800           0
     11723 MEMB     102      CHL1     H21B     HAL3     0.900000E-01   1.00800           0
     11724 MEMB     102      CHL1     H21C     HAL3     0.900000E-01   1.00800           0
     11725 MEMB     102      CHL1     C22      CTL2    -0.180000       12.0110           0
     11726 MEMB     102      CHL1     H22A     HAL2     0.900000E-01   1.00800           0
     11727 MEMB     102      CHL1     H22B     HAL2     0.900000E-01   1.00800           0
     11728 MEMB     102      CHL1     C23      CTL2    -0.180000       12.0110           0
     11729 MEMB     102      CHL1     H23A     HAL2     0.900000E-01   1.00800           0
     11730 MEMB     102      CHL1     H23B     HAL2     0.900000E-01   1.00800           0
     11731 MEMB     102      CHL1     C24      CTL2    -0.180000       12.0110           0
     11732 MEMB     102      CHL1     H24A     HAL2     0.900000E-01   1.00800           0
     11733 MEMB     102      CHL1     H24B     HAL2     0.900000E-01   1.00800           0
     11734 MEMB     102      CHL1     C25      CTL1    -0.900000E-01   12.0110           0
     11735 MEMB     102      CHL1     H25      HAL1     0.900000E-01   1.00800           0
     11736 MEMB     102      CHL1     C26      CTL3    -0.270000       12.0110           0
     11737 MEMB     102      CHL1     H26A     HAL3     0.900000E-01   1.00800           0
     11738 MEMB     102      CHL1     H26B     HAL3     0.900000E-01   1.00800           0
     11739 MEMB     102      CHL1     H26C     HAL3     0.900000E-01   1.00800           0
     11740 MEMB     102      CHL1     C27      CTL3    -0.270000       12.0110           0
     11741 MEMB     102      CHL1     H27A     HAL3     0.900000E-01   1.00800           0
     11742 MEMB     102      CHL1     H27B     HAL3     0.900000E-01   1.00800           0
     11743 MEMB     102      CHL1     H27C     HAL3     0.900000E-01   1.00800           0
     11744 MEMB     103      SAPI     C12      CC3161   0.140000       12.0110           0
     11745 MEMB     103      SAPI     H2       HCA1     0.900000E-01   1.00800           0
     11746 MEMB     103      SAPI     O2       OC311   -0.650000       15.9994           0
     11747 MEMB     103      SAPI     HO2      HCP1     0.420000       1.00800           0
     11748 MEMB     103      SAPI     C13      CC3161   0.140000       12.0110           0
     11749 MEMB     103      SAPI     H3       HCA1     0.900000E-01   1.00800           0
     11750 MEMB     103      SAPI     O3       OC311   -0.650000       15.9994           0
     11751 MEMB     103      SAPI     HO3      HCP1     0.420000       1.00800           0
     11752 MEMB     103      SAPI     C14      CC3161   0.140000       12.0110           0
     11753 MEMB     103      SAPI     H4       HCA1     0.900000E-01   1.00800           0
     11754 MEMB     103      SAPI     O4       OC311   -0.650000       15.9994           0
     11755 MEMB     103      SAPI     HO4      HCP1     0.420000       1.00800           0
     11756 MEMB     103      SAPI     C15      CC3161   0.140000       12.0110           0
     11757 MEMB     103      SAPI     H5       HCA1     0.900000E-01   1.00800           0
     11758 MEMB     103      SAPI     O5       OC311   -0.650000       15.9994           0
     11759 MEMB     103      SAPI     HO5      HCP1     0.420000       1.00800           0
     11760 MEMB     103      SAPI     C16      CC3161   0.140000       12.0110           0
     11761 MEMB     103      SAPI     H6       HCA1     0.900000E-01   1.00800           0
     11762 MEMB     103      SAPI     O6       OC311   -0.650000       15.9994           0
     11763 MEMB     103      SAPI     HO6      HCP1     0.420000       1.00800           0
     11764 MEMB     103      SAPI     C11      CC3161  -0.800000E-01   12.0110           0
     11765 MEMB     103      SAPI     H1       HCA1     0.900000E-01   1.00800           0
     11766 MEMB     103      SAPI     P        PL        1.59000       30.9740           0
     11767 MEMB     103      SAPI     O13      O2L     -0.780000       15.9994           0
     11768 MEMB     103      SAPI     O14      O2L     -0.780000       15.9994           0
     11769 MEMB     103      SAPI     O12      OC30P   -0.570000       15.9994           0
     11770 MEMB     103      SAPI     O11      OSLP    -0.570000       15.9994           0
     11771 MEMB     103      SAPI     C1       CTL2    -0.800000E-01   12.0110           0
     11772 MEMB     103      SAPI     HA       HAL2     0.900000E-01   1.00800           0
     11773 MEMB     103      SAPI     HB       HAL2     0.900000E-01   1.00800           0
     11774 MEMB     103      SAPI     C2       CTL1     0.170000       12.0110           0
     11775 MEMB     103      SAPI     HS       HAL1     0.900000E-01   1.00800           0
     11776 MEMB     103      SAPI     O21      OSL     -0.490000       15.9994           0
     11777 MEMB     103      SAPI     C21      CL       0.900000       12.0110           0
     11778 MEMB     103      SAPI     O22      OBL     -0.630000       15.9994           0
     11779 MEMB     103      SAPI     C22      CTL2    -0.220000       12.0110           0
     11780 MEMB     103      SAPI     H2R      HAL2     0.900000E-01   1.00800           0
     11781 MEMB     103      SAPI     H2S      HAL2     0.900000E-01   1.00800           0
     11782 MEMB     103      SAPI     C3       CTL2     0.800000E-01   12.0110           0
     11783 MEMB     103      SAPI     HX       HAL2     0.900000E-01   1.00800           0
     11784 MEMB     103      SAPI     HY       HAL2     0.900000E-01   1.00800           0
     11785 MEMB     103      SAPI     O31      OSL     -0.490000       15.9994           0
     11786 MEMB     103      SAPI     C31      CL       0.900000       12.0110           0
     11787 MEMB     103      SAPI     O32      OBL     -0.630000       15.9994           0
     11788 MEMB     103      SAPI     C32      CTL2    -0.220000       12.0110           0
     11789 MEMB     103      SAPI     H2X      HAL2     0.900000E-01   1.00800           0
     11790 MEMB     103      SAPI     H2Y      HAL2     0.900000E-01   1.00800           0
     11791 MEMB     103      SAPI     C23      CTL2    -0.180000       12.0110           0
     11792 MEMB     103      SAPI     H3R      HAL2     0.900000E-01   1.00800           0
     11793 MEMB     103      SAPI     H3S      HAL2     0.900000E-01   1.00800           0
     11794 MEMB     103      SAPI     C24      CTL2    -0.180000       12.0110           0
     11795 MEMB     103      SAPI     H4R      HAL2     0.900000E-01   1.00800           0
     11796 MEMB     103      SAPI     H4S      HAL2     0.900000E-01   1.00800           0
     11797 MEMB     103      SAPI     C25      CEL1    -0.150000       12.0110           0
     11798 MEMB     103      SAPI     H5R      HEL1     0.150000       1.00800           0
     11799 MEMB     103      SAPI     C26      CEL1    -0.150000       12.0110           0
     11800 MEMB     103      SAPI     H6R      HEL1     0.150000       1.00800           0
     11801 MEMB     103      SAPI     C27      CTL2    -0.180000       12.0110           0
     11802 MEMB     103      SAPI     H7R      HAL2     0.900000E-01   1.00800           0
     11803 MEMB     103      SAPI     H7S      HAL2     0.900000E-01   1.00800           0
     11804 MEMB     103      SAPI     C28      CEL1    -0.150000       12.0110           0
     11805 MEMB     103      SAPI     H8R      HEL1     0.150000       1.00800           0
     11806 MEMB     103      SAPI     C29      CEL1    -0.150000       12.0110           0
     11807 MEMB     103      SAPI     H9R      HEL1     0.150000       1.00800           0
     11808 MEMB     103      SAPI     C210     CTL2    -0.180000       12.0110           0
     11809 MEMB     103      SAPI     H10R     HAL2     0.900000E-01   1.00800           0
     11810 MEMB     103      SAPI     H10S     HAL2     0.900000E-01   1.00800           0
     11811 MEMB     103      SAPI     C211     CEL1    -0.150000       12.0110           0
     11812 MEMB     103      SAPI     H11R     HEL1     0.150000       1.00800           0
     11813 MEMB     103      SAPI     C212     CEL1    -0.150000       12.0110           0
     11814 MEMB     103      SAPI     H12R     HEL1     0.150000       1.00800           0
     11815 MEMB     103      SAPI     C213     CTL2    -0.180000       12.0110           0
     11816 MEMB     103      SAPI     H13R     HAL2     0.900000E-01   1.00800           0
     11817 MEMB     103      SAPI     H13S     HAL2     0.900000E-01   1.00800           0
     11818 MEMB     103      SAPI     C214     CEL1    -0.150000       12.0110           0
     11819 MEMB     103      SAPI     H14R     HEL1     0.150000       1.00800           0
     11820 MEMB     103      SAPI     C215     CEL1    -0.150000       12.0110           0
     11821 MEMB     103      SAPI     H15R     HEL1     0.150000       1.00800           0
     11822 MEMB     103      SAPI     C216     CTL2    -0.180000       12.0110           0
     11823 MEMB     103      SAPI     H16R     HAL2     0.900000E-01   1.00800           0
     11824 MEMB     103      SAPI     H16S     HAL2     0.900000E-01   1.00800           0
     11825 MEMB     103      SAPI     C217     CTL2    -0.180000       12.0110           0
     11826 MEMB     103      SAPI     H17R     HAL2     0.900000E-01   1.00800           0
     11827 MEMB     103      SAPI     H17S     HAL2     0.900000E-01   1.00800           0
     11828 MEMB     103      SAPI     C218     CTL2    -0.180000       12.0110           0
     11829 MEMB     103      SAPI     H18R     HAL2     0.900000E-01   1.00800           0
     11830 MEMB     103      SAPI     H18S     HAL2     0.900000E-01   1.00800           0
     11831 MEMB     103      SAPI     C219     CTL2    -0.180000       12.0110           0
     11832 MEMB     103      SAPI     H19R     HAL2     0.900000E-01   1.00800           0
     11833 MEMB     103      SAPI     H19S     HAL2     0.900000E-01   1.00800           0
     11834 MEMB     103      SAPI     C220     CTL3    -0.270000       12.0110           0
     11835 MEMB     103      SAPI     H20R     HAL3     0.900000E-01   1.00800           0
     11836 MEMB     103      SAPI     H20S     HAL3     0.900000E-01   1.00800           0
     11837 MEMB     103      SAPI     H20T     HAL3     0.900000E-01   1.00800           0
     11838 MEMB     103      SAPI     C33      CTL2    -0.180000       12.0110           0
     11839 MEMB     103      SAPI     H3X      HAL2     0.900000E-01   1.00800           0
     11840 MEMB     103      SAPI     H3Y      HAL2     0.900000E-01   1.00800           0
     11841 MEMB     103      SAPI     C34      CTL2    -0.180000       12.0110           0
     11842 MEMB     103      SAPI     H4X      HAL2     0.900000E-01   1.00800           0
     11843 MEMB     103      SAPI     H4Y      HAL2     0.900000E-01   1.00800           0
     11844 MEMB     103      SAPI     C35      CTL2    -0.180000       12.0110           0
     11845 MEMB     103      SAPI     H5X      HAL2     0.900000E-01   1.00800           0
     11846 MEMB     103      SAPI     H5Y      HAL2     0.900000E-01   1.00800           0
     11847 MEMB     103      SAPI     C36      CTL2    -0.180000       12.0110           0
     11848 MEMB     103      SAPI     H6X      HAL2     0.900000E-01   1.00800           0
     11849 MEMB     103      SAPI     H6Y      HAL2     0.900000E-01   1.00800           0
     11850 MEMB     103      SAPI     C37      CTL2    -0.180000       12.0110           0
     11851 MEMB     103      SAPI     H7X      HAL2     0.900000E-01   1.00800           0
     11852 MEMB     103      SAPI     H7Y      HAL2     0.900000E-01   1.00800           0
     11853 MEMB     103      SAPI     C38      CTL2    -0.180000       12.0110           0
     11854 MEMB     103      SAPI     H8X      HAL2     0.900000E-01   1.00800           0
     11855 MEMB     103      SAPI     H8Y      HAL2     0.900000E-01   1.00800           0
     11856 MEMB     103      SAPI     C39      CTL2    -0.180000       12.0110           0
     11857 MEMB     103      SAPI     H9X      HAL2     0.900000E-01   1.00800           0
     11858 MEMB     103      SAPI     H9Y      HAL2     0.900000E-01   1.00800           0
     11859 MEMB     103      SAPI     C310     CTL2    -0.180000       12.0110           0
     11860 MEMB     103      SAPI     H10X     HAL2     0.900000E-01   1.00800           0
     11861 MEMB     103      SAPI     H10Y     HAL2     0.900000E-01   1.00800           0
     11862 MEMB     103      SAPI     C311     CTL2    -0.180000       12.0110           0
     11863 MEMB     103      SAPI     H11X     HAL2     0.900000E-01   1.00800           0
     11864 MEMB     103      SAPI     H11Y     HAL2     0.900000E-01   1.00800           0
     11865 MEMB     103      SAPI     C312     CTL2    -0.180000       12.0110           0
     11866 MEMB     103      SAPI     H12X     HAL2     0.900000E-01   1.00800           0
     11867 MEMB     103      SAPI     H12Y     HAL2     0.900000E-01   1.00800           0
     11868 MEMB     103      SAPI     C313     CTL2    -0.180000       12.0110           0
     11869 MEMB     103      SAPI     H13X     HAL2     0.900000E-01   1.00800           0
     11870 MEMB     103      SAPI     H13Y     HAL2     0.900000E-01   1.00800           0
     11871 MEMB     103      SAPI     C314     CTL2    -0.180000       12.0110           0
     11872 MEMB     103      SAPI     H14X     HAL2     0.900000E-01   1.00800           0
     11873 MEMB     103      SAPI     H14Y     HAL2     0.900000E-01   1.00800           0
     11874 MEMB     103      SAPI     C315     CTL2    -0.180000       12.0110           0
     11875 MEMB     103      SAPI     H15X     HAL2     0.900000E-01   1.00800           0
     11876 MEMB     103      SAPI     H15Y     HAL2     0.900000E-01   1.00800           0
     11877 MEMB     103      SAPI     C316     CTL2    -0.180000       12.0110           0
     11878 MEMB     103      SAPI     H16X     HAL2     0.900000E-01   1.00800           0
     11879 MEMB     103      SAPI     H16Y     HAL2     0.900000E-01   1.00800           0
     11880 MEMB     103      SAPI     C317     CTL2    -0.180000       12.0110           0
     11881 MEMB     103      SAPI     H17X     HAL2     0.900000E-01   1.00800           0
     11882 MEMB     103      SAPI     H17Y     HAL2     0.900000E-01   1.00800           0
     11883 MEMB     103      SAPI     C318     CTL3    -0.270000       12.0110           0
     11884 MEMB     103      SAPI     H18X     HAL3     0.900000E-01   1.00800           0
     11885 MEMB     103      SAPI     H18Y     HAL3     0.900000E-01   1.00800           0
     11886 MEMB     103      SAPI     H18Z     HAL3     0.900000E-01   1.00800           0
     11887 MEMB     104      SAPS     N        NH3L    -0.300000       14.0070           0
     11888 MEMB     104      SAPS     HN1      HCL      0.330000       1.00800           0
     11889 MEMB     104      SAPS     HN2      HCL      0.330000       1.00800           0
     11890 MEMB     104      SAPS     HN3      HCL      0.330000       1.00800           0
     11891 MEMB     104      SAPS     C12      CTL1     0.210000       12.0110           0
     11892 MEMB     104      SAPS     H12A     HBL      0.100000       1.00800           0
     11893 MEMB     104      SAPS     C13      CCL      0.340000       12.0110           0
     11894 MEMB     104      SAPS     O13A     OCL     -0.670000       15.9994           0
     11895 MEMB     104      SAPS     O13B     OCL     -0.670000       15.9994           0
     11896 MEMB     104      SAPS     C11      CTL2    -0.800000E-01   12.0110           0
     11897 MEMB     104      SAPS     H11A     HAL2     0.900000E-01   1.00800           0
     11898 MEMB     104      SAPS     H11B     HAL2     0.900000E-01   1.00800           0
     11899 MEMB     104      SAPS     P        PL        1.50000       30.9740           0
     11900 MEMB     104      SAPS     O13      O2L     -0.780000       15.9994           0
     11901 MEMB     104      SAPS     O14      O2L     -0.780000       15.9994           0
     11902 MEMB     104      SAPS     O12      OSLP    -0.570000       15.9994           0
     11903 MEMB     104      SAPS     O11      OSLP    -0.570000       15.9994           0
     11904 MEMB     104      SAPS     C1       CTL2    -0.800000E-01   12.0110           0
     11905 MEMB     104      SAPS     HA       HAL2     0.900000E-01   1.00800           0
     11906 MEMB     104      SAPS     HB       HAL2     0.900000E-01   1.00800           0
     11907 MEMB     104      SAPS     C2       CTL1     0.170000       12.0110           0
     11908 MEMB     104      SAPS     HS       HAL1     0.900000E-01   1.00800           0
     11909 MEMB     104      SAPS     O21      OSL     -0.490000       15.9994           0
     11910 MEMB     104      SAPS     C21      CL       0.900000       12.0110           0
     11911 MEMB     104      SAPS     O22      OBL     -0.630000       15.9994           0
     11912 MEMB     104      SAPS     C22      CTL2    -0.220000       12.0110           0
     11913 MEMB     104      SAPS     H2R      HAL2     0.900000E-01   1.00800           0
     11914 MEMB     104      SAPS     H2S      HAL2     0.900000E-01   1.00800           0
     11915 MEMB     104      SAPS     C3       CTL2     0.800000E-01   12.0110           0
     11916 MEMB     104      SAPS     HX       HAL2     0.900000E-01   1.00800           0
     11917 MEMB     104      SAPS     HY       HAL2     0.900000E-01   1.00800           0
     11918 MEMB     104      SAPS     O31      OSL     -0.490000       15.9994           0
     11919 MEMB     104      SAPS     C31      CL       0.900000       12.0110           0
     11920 MEMB     104      SAPS     O32      OBL     -0.630000       15.9994           0
     11921 MEMB     104      SAPS     C32      CTL2    -0.220000       12.0110           0
     11922 MEMB     104      SAPS     H2X      HAL2     0.900000E-01   1.00800           0
     11923 MEMB     104      SAPS     H2Y      HAL2     0.900000E-01   1.00800           0
     11924 MEMB     104      SAPS     C23      CTL2    -0.180000       12.0110           0
     11925 MEMB     104      SAPS     H3R      HAL2     0.900000E-01   1.00800           0
     11926 MEMB     104      SAPS     H3S      HAL2     0.900000E-01   1.00800           0
     11927 MEMB     104      SAPS     C24      CTL2    -0.180000       12.0110           0
     11928 MEMB     104      SAPS     H4R      HAL2     0.900000E-01   1.00800           0
     11929 MEMB     104      SAPS     H4S      HAL2     0.900000E-01   1.00800           0
     11930 MEMB     104      SAPS     C25      CEL1    -0.150000       12.0110           0
     11931 MEMB     104      SAPS     H5R      HEL1     0.150000       1.00800           0
     11932 MEMB     104      SAPS     C26      CEL1    -0.150000       12.0110           0
     11933 MEMB     104      SAPS     H6R      HEL1     0.150000       1.00800           0
     11934 MEMB     104      SAPS     C27      CTL2    -0.180000       12.0110           0
     11935 MEMB     104      SAPS     H7R      HAL2     0.900000E-01   1.00800           0
     11936 MEMB     104      SAPS     H7S      HAL2     0.900000E-01   1.00800           0
     11937 MEMB     104      SAPS     C28      CEL1    -0.150000       12.0110           0
     11938 MEMB     104      SAPS     H8R      HEL1     0.150000       1.00800           0
     11939 MEMB     104      SAPS     C29      CEL1    -0.150000       12.0110           0
     11940 MEMB     104      SAPS     H9R      HEL1     0.150000       1.00800           0
     11941 MEMB     104      SAPS     C210     CTL2    -0.180000       12.0110           0
     11942 MEMB     104      SAPS     H10R     HAL2     0.900000E-01   1.00800           0
     11943 MEMB     104      SAPS     H10S     HAL2     0.900000E-01   1.00800           0
     11944 MEMB     104      SAPS     C211     CEL1    -0.150000       12.0110           0
     11945 MEMB     104      SAPS     H11R     HEL1     0.150000       1.00800           0
     11946 MEMB     104      SAPS     C212     CEL1    -0.150000       12.0110           0
     11947 MEMB     104      SAPS     H12R     HEL1     0.150000       1.00800           0
     11948 MEMB     104      SAPS     C213     CTL2    -0.180000       12.0110           0
     11949 MEMB     104      SAPS     H13R     HAL2     0.900000E-01   1.00800           0
     11950 MEMB     104      SAPS     H13S     HAL2     0.900000E-01   1.00800           0
     11951 MEMB     104      SAPS     C214     CEL1    -0.150000       12.0110           0
     11952 MEMB     104      SAPS     H14R     HEL1     0.150000       1.00800           0
     11953 MEMB     104      SAPS     C215     CEL1    -0.150000       12.0110           0
     11954 MEMB     104      SAPS     H15R     HEL1     0.150000       1.00800           0
     11955 MEMB     104      SAPS     C216     CTL2    -0.180000       12.0110           0
     11956 MEMB     104      SAPS     H16R     HAL2     0.900000E-01   1.00800           0
     11957 MEMB     104      SAPS     H16S     HAL2     0.900000E-01   1.00800           0
     11958 MEMB     104      SAPS     C217     CTL2    -0.180000       12.0110           0
     11959 MEMB     104      SAPS     H17R     HAL2     0.900000E-01   1.00800           0
     11960 MEMB     104      SAPS     H17S     HAL2     0.900000E-01   1.00800           0
     11961 MEMB     104      SAPS     C218     CTL2    -0.180000       12.0110           0
     11962 MEMB     104      SAPS     H18R     HAL2     0.900000E-01   1.00800           0
     11963 MEMB     104      SAPS     H18S     HAL2     0.900000E-01   1.00800           0
     11964 MEMB     104      SAPS     C219     CTL2    -0.180000       12.0110           0
     11965 MEMB     104      SAPS     H19R     HAL2     0.900000E-01   1.00800           0
     11966 MEMB     104      SAPS     H19S     HAL2     0.900000E-01   1.00800           0
     11967 MEMB     104      SAPS     C220     CTL3    -0.270000       12.0110           0
     11968 MEMB     104      SAPS     H20R     HAL3     0.900000E-01   1.00800           0
     11969 MEMB     104      SAPS     H20S     HAL3     0.900000E-01   1.00800           0
     11970 MEMB     104      SAPS     H20T     HAL3     0.900000E-01   1.00800           0
     11971 MEMB     104      SAPS     C33      CTL2    -0.180000       12.0110           0
     11972 MEMB     104      SAPS     H3X      HAL2     0.900000E-01   1.00800           0
     11973 MEMB     104      SAPS     H3Y      HAL2     0.900000E-01   1.00800           0
     11974 MEMB     104      SAPS     C34      CTL2    -0.180000       12.0110           0
     11975 MEMB     104      SAPS     H4X      HAL2     0.900000E-01   1.00800           0
     11976 MEMB     104      SAPS     H4Y      HAL2     0.900000E-01   1.00800           0
     11977 MEMB     104      SAPS     C35      CTL2    -0.180000       12.0110           0
     11978 MEMB     104      SAPS     H5X      HAL2     0.900000E-01   1.00800           0
     11979 MEMB     104      SAPS     H5Y      HAL2     0.900000E-01   1.00800           0
     11980 MEMB     104      SAPS     C36      CTL2    -0.180000       12.0110           0
     11981 MEMB     104      SAPS     H6X      HAL2     0.900000E-01   1.00800           0
     11982 MEMB     104      SAPS     H6Y      HAL2     0.900000E-01   1.00800           0
     11983 MEMB     104      SAPS     C37      CTL2    -0.180000       12.0110           0
     11984 MEMB     104      SAPS     H7X      HAL2     0.900000E-01   1.00800           0
     11985 MEMB     104      SAPS     H7Y      HAL2     0.900000E-01   1.00800           0
     11986 MEMB     104      SAPS     C38      CTL2    -0.180000       12.0110           0
     11987 MEMB     104      SAPS     H8X      HAL2     0.900000E-01   1.00800           0
     11988 MEMB     104      SAPS     H8Y      HAL2     0.900000E-01   1.00800           0
     11989 MEMB     104      SAPS     C39      CTL2    -0.180000       12.0110           0
     11990 MEMB     104      SAPS     H9X      HAL2     0.900000E-01   1.00800           0
     11991 MEMB     104      SAPS     H9Y      HAL2     0.900000E-01   1.00800           0
     11992 MEMB     104      SAPS     C310     CTL2    -0.180000       12.0110           0
     11993 MEMB     104      SAPS     H10X     HAL2     0.900000E-01   1.00800           0
     11994 MEMB     104      SAPS     H10Y     HAL2     0.900000E-01   1.00800           0
     11995 MEMB     104      SAPS     C311     CTL2    -0.180000       12.0110           0
     11996 MEMB     104      SAPS     H11X     HAL2     0.900000E-01   1.00800           0
     11997 MEMB     104      SAPS     H11Y     HAL2     0.900000E-01   1.00800           0
     11998 MEMB     104      SAPS     C312     CTL2    -0.180000       12.0110           0
     11999 MEMB     104      SAPS     H12X     HAL2     0.900000E-01   1.00800           0
     12000 MEMB     104      SAPS     H12Y     HAL2     0.900000E-01   1.00800           0
     12001 MEMB     104      SAPS     C313     CTL2    -0.180000       12.0110           0
     12002 MEMB     104      SAPS     H13X     HAL2     0.900000E-01   1.00800           0
     12003 MEMB     104      SAPS     H13Y     HAL2     0.900000E-01   1.00800           0
     12004 MEMB     104      SAPS     C314     CTL2    -0.180000       12.0110           0
     12005 MEMB     104      SAPS     H14X     HAL2     0.900000E-01   1.00800           0
     12006 MEMB     104      SAPS     H14Y     HAL2     0.900000E-01   1.00800           0
     12007 MEMB     104      SAPS     C315     CTL2    -0.180000       12.0110           0
     12008 MEMB     104      SAPS     H15X     HAL2     0.900000E-01   1.00800           0
     12009 MEMB     104      SAPS     H15Y     HAL2     0.900000E-01   1.00800           0
     12010 MEMB     104      SAPS     C316     CTL2    -0.180000       12.0110           0
     12011 MEMB     104      SAPS     H16X     HAL2     0.900000E-01   1.00800           0
     12012 MEMB     104      SAPS     H16Y     HAL2     0.900000E-01   1.00800           0
     12013 MEMB     104      SAPS     C317     CTL2    -0.180000       12.0110           0
     12014 MEMB     104      SAPS     H17X     HAL2     0.900000E-01   1.00800           0
     12015 MEMB     104      SAPS     H17Y     HAL2     0.900000E-01   1.00800           0
     12016 MEMB     104      SAPS     C318     CTL3    -0.270000       12.0110           0
     12017 MEMB     104      SAPS     H18X     HAL3     0.900000E-01   1.00800           0
     12018 MEMB     104      SAPS     H18Y     HAL3     0.900000E-01   1.00800           0
     12019 MEMB     104      SAPS     H18Z     HAL3     0.900000E-01   1.00800           0
     12020 MEMB     105      OSM      N        NTL     -0.600000       14.0070           0
     12021 MEMB     105      OSM      C15      CTL5    -0.350000       12.0110           0
     12022 MEMB     105      OSM      H15A     HL       0.250000       1.00800           0
     12023 MEMB     105      OSM      H15B     HL       0.250000       1.00800           0
     12024 MEMB     105      OSM      H15C     HL       0.250000       1.00800           0
     12025 MEMB     105      OSM      C14      CTL5    -0.350000       12.0110           0
     12026 MEMB     105      OSM      H14A     HL       0.250000       1.00800           0
     12027 MEMB     105      OSM      H14B     HL       0.250000       1.00800           0
     12028 MEMB     105      OSM      H14C     HL       0.250000       1.00800           0
     12029 MEMB     105      OSM      C13      CTL5    -0.350000       12.0110           0
     12030 MEMB     105      OSM      H13A     HL       0.250000       1.00800           0
     12031 MEMB     105      OSM      H13B     HL       0.250000       1.00800           0
     12032 MEMB     105      OSM      H13C     HL       0.250000       1.00800           0
     12033 MEMB     105      OSM      C12      CTL2    -0.100000       12.0110           0
     12034 MEMB     105      OSM      H12A     HL       0.250000       1.00800           0
     12035 MEMB     105      OSM      H12B     HL       0.250000       1.00800           0
     12036 MEMB     105      OSM      C11      CTL2    -0.800000E-01   12.0110           0
     12037 MEMB     105      OSM      H11A     HAL2     0.900000E-01   1.00800           0
     12038 MEMB     105      OSM      H11B     HAL2     0.900000E-01   1.00800           0
     12039 MEMB     105      OSM      P        PL        1.50000       30.9740           0
     12040 MEMB     105      OSM      O13      O2L     -0.780000       15.9994           0
     12041 MEMB     105      OSM      O14      O2L     -0.780000       15.9994           0
     12042 MEMB     105      OSM      O11      OSLP    -0.570000       15.9994           0
     12043 MEMB     105      OSM      O12      OSLP    -0.570000       15.9994           0
     12044 MEMB     105      OSM      C1S      CTL2    -0.800000E-01   12.0110           0
     12045 MEMB     105      OSM      H1S      HAL2     0.900000E-01   1.00800           0
     12046 MEMB     105      OSM      H1T      HAL2     0.900000E-01   1.00800           0
     12047 MEMB     105      OSM      NF       NHL     -0.700000       14.0070           0
     12048 MEMB     105      OSM      HNF      H        0.350000       1.00800           0
     12049 MEMB     105      OSM      C2S      CTL1     0.300000       12.0110           0
     12050 MEMB     105      OSM      H2S      HAL1     0.500000E-01   1.00800           0
     12051 MEMB     105      OSM      C3S      CTO1     0.500000       12.0110           0
     12052 MEMB     105      OSM      H3S      HAL1    -0.110000       1.00800           0
     12053 MEMB     105      OSM      O3       OHL     -0.690000       15.9994           0
     12054 MEMB     105      OSM      HO3      HOL      0.300000       1.00800           0
     12055 MEMB     105      OSM      C4S      CEL3    -0.150000       12.0110           0
     12056 MEMB     105      OSM      H4S      HEL1     0.150000       1.00800           0
     12057 MEMB     105      OSM      C5S      CEL3    -0.150000       12.0110           0
     12058 MEMB     105      OSM      H5S      HEL1     0.150000       1.00800           0
     12059 MEMB     105      OSM      C6S      CTL2    -0.180000       12.0110           0
     12060 MEMB     105      OSM      H6S      HAL2     0.900000E-01   1.00800           0
     12061 MEMB     105      OSM      H6T      HAL2     0.900000E-01   1.00800           0
     12062 MEMB     105      OSM      C7S      CTL2    -0.180000       12.0110           0
     12063 MEMB     105      OSM      H7S      HAL2     0.900000E-01   1.00800           0
     12064 MEMB     105      OSM      H7T      HAL2     0.900000E-01   1.00800           0
     12065 MEMB     105      OSM      C8S      CTL2    -0.180000       12.0110           0
     12066 MEMB     105      OSM      H8S      HAL2     0.900000E-01   1.00800           0
     12067 MEMB     105      OSM      H8T      HAL2     0.900000E-01   1.00800           0
     12068 MEMB     105      OSM      C9S      CTL2    -0.180000       12.0110           0
     12069 MEMB     105      OSM      H9S      HAL2     0.900000E-01   1.00800           0
     12070 MEMB     105      OSM      H9T      HAL2     0.900000E-01   1.00800           0
     12071 MEMB     105      OSM      C10S     CTL2    -0.180000       12.0110           0
     12072 MEMB     105      OSM      H10S     HAL2     0.900000E-01   1.00800           0
     12073 MEMB     105      OSM      H10T     HAL2     0.900000E-01   1.00800           0
     12074 MEMB     105      OSM      C11S     CTL2    -0.180000       12.0110           0
     12075 MEMB     105      OSM      H11S     HAL2     0.900000E-01   1.00800           0
     12076 MEMB     105      OSM      H11T     HAL2     0.900000E-01   1.00800           0
     12077 MEMB     105      OSM      C12S     CTL2    -0.180000       12.0110           0
     12078 MEMB     105      OSM      H12S     HAL2     0.900000E-01   1.00800           0
     12079 MEMB     105      OSM      H12T     HAL2     0.900000E-01   1.00800           0
     12080 MEMB     105      OSM      C13S     CTL2    -0.180000       12.0110           0
     12081 MEMB     105      OSM      H13S     HAL2     0.900000E-01   1.00800           0
     12082 MEMB     105      OSM      H13T     HAL2     0.900000E-01   1.00800           0
     12083 MEMB     105      OSM      C14S     CTL2    -0.180000       12.0110           0
     12084 MEMB     105      OSM      H14S     HAL2     0.900000E-01   1.00800           0
     12085 MEMB     105      OSM      H14T     HAL2     0.900000E-01   1.00800           0
     12086 MEMB     105      OSM      C15S     CTL2    -0.180000       12.0110           0
     12087 MEMB     105      OSM      H15S     HAL2     0.900000E-01   1.00800           0
     12088 MEMB     105      OSM      H15T     HAL2     0.900000E-01   1.00800           0
     12089 MEMB     105      OSM      C16S     CTL2    -0.180000       12.0110           0
     12090 MEMB     105      OSM      H16S     HAL2     0.900000E-01   1.00800           0
     12091 MEMB     105      OSM      H16T     HAL2     0.900000E-01   1.00800           0
     12092 MEMB     105      OSM      C17S     CTL2    -0.180000       12.0110           0
     12093 MEMB     105      OSM      H17S     HAL2     0.900000E-01   1.00800           0
     12094 MEMB     105      OSM      H17T     HAL2     0.900000E-01   1.00800           0
     12095 MEMB     105      OSM      C18S     CTL3    -0.270000       12.0110           0
     12096 MEMB     105      OSM      H18S     HAL3     0.900000E-01   1.00800           0
     12097 MEMB     105      OSM      H18T     HAL3     0.900000E-01   1.00800           0
     12098 MEMB     105      OSM      H18U     HAL3     0.900000E-01   1.00800           0
     12099 MEMB     105      OSM      C1F      C        0.550000       12.0110           0
     12100 MEMB     105      OSM      OF       O       -0.600000       15.9994           0
     12101 MEMB     105      OSM      C2F      CTL2    -0.700000E-01   12.0110           0
     12102 MEMB     105      OSM      H2F      HAL2     0.600000E-01   1.00800           0
     12103 MEMB     105      OSM      H2G      HAL2     0.600000E-01   1.00800           0
     12104 MEMB     105      OSM      C3F      CTL2    -0.180000       12.0110           0
     12105 MEMB     105      OSM      H3F      HAL2     0.900000E-01   1.00800           0
     12106 MEMB     105      OSM      H3G      HAL2     0.900000E-01   1.00800           0
     12107 MEMB     105      OSM      C4F      CTL2    -0.180000       12.0110           0
     12108 MEMB     105      OSM      H4F      HAL2     0.900000E-01   1.00800           0
     12109 MEMB     105      OSM      H4G      HAL2     0.900000E-01   1.00800           0
     12110 MEMB     105      OSM      C5F      CTL2    -0.180000       12.0110           0
     12111 MEMB     105      OSM      H5F      HAL2     0.900000E-01   1.00800           0
     12112 MEMB     105      OSM      H5G      HAL2     0.900000E-01   1.00800           0
     12113 MEMB     105      OSM      C6F      CTL2    -0.180000       12.0110           0
     12114 MEMB     105      OSM      H6F      HAL2     0.900000E-01   1.00800           0
     12115 MEMB     105      OSM      H6G      HAL2     0.900000E-01   1.00800           0
     12116 MEMB     105      OSM      C7F      CTL2    -0.180000       12.0110           0
     12117 MEMB     105      OSM      H7F      HAL2     0.900000E-01   1.00800           0
     12118 MEMB     105      OSM      H7G      HAL2     0.900000E-01   1.00800           0
     12119 MEMB     105      OSM      C8F      CTL2    -0.180000       12.0110           0
     12120 MEMB     105      OSM      H8F      HAL2     0.900000E-01   1.00800           0
     12121 MEMB     105      OSM      H8G      HAL2     0.900000E-01   1.00800           0
     12122 MEMB     105      OSM      C9F      CEL1    -0.150000       12.0110           0
     12123 MEMB     105      OSM      H9F      HEL1     0.150000       1.00800           0
     12124 MEMB     105      OSM      C10F     CEL1    -0.150000       12.0110           0
     12125 MEMB     105      OSM      H10F     HEL1     0.150000       1.00800           0
     12126 MEMB     105      OSM      C11F     CTL2    -0.180000       12.0110           0
     12127 MEMB     105      OSM      H11F     HAL2     0.900000E-01   1.00800           0
     12128 MEMB     105      OSM      H11G     HAL2     0.900000E-01   1.00800           0
     12129 MEMB     105      OSM      C12F     CTL2    -0.180000       12.0110           0
     12130 MEMB     105      OSM      H12F     HAL2     0.900000E-01   1.00800           0
     12131 MEMB     105      OSM      H12G     HAL2     0.900000E-01   1.00800           0
     12132 MEMB     105      OSM      C13F     CTL2    -0.180000       12.0110           0
     12133 MEMB     105      OSM      H13F     HAL2     0.900000E-01   1.00800           0
     12134 MEMB     105      OSM      H13G     HAL2     0.900000E-01   1.00800           0
     12135 MEMB     105      OSM      C14F     CTL2    -0.180000       12.0110           0
     12136 MEMB     105      OSM      H14F     HAL2     0.900000E-01   1.00800           0
     12137 MEMB     105      OSM      H14G     HAL2     0.900000E-01   1.00800           0
     12138 MEMB     105      OSM      C15F     CTL2    -0.180000       12.0110           0
     12139 MEMB     105      OSM      H15F     HAL2     0.900000E-01   1.00800           0
     12140 MEMB     105      OSM      H15G     HAL2     0.900000E-01   1.00800           0
     12141 MEMB     105      OSM      C16F     CTL2    -0.180000       12.0110           0
     12142 MEMB     105      OSM      H16F     HAL2     0.900000E-01   1.00800           0
     12143 MEMB     105      OSM      H16G     HAL2     0.900000E-01   1.00800           0
     12144 MEMB     105      OSM      C17F     CTL2    -0.180000       12.0110           0
     12145 MEMB     105      OSM      H17F     HAL2     0.900000E-01   1.00800           0
     12146 MEMB     105      OSM      H17G     HAL2     0.900000E-01   1.00800           0
     12147 MEMB     105      OSM      C18F     CTL3    -0.270000       12.0110           0
     12148 MEMB     105      OSM      H18F     HAL3     0.900000E-01   1.00800           0
     12149 MEMB     105      OSM      H18G     HAL3     0.900000E-01   1.00800           0
     12150 MEMB     105      OSM      H18H     HAL3     0.900000E-01   1.00800           0
     12151 MEMB     106      SOPE     N        NH3L    -0.300000       14.0070           0
     12152 MEMB     106      SOPE     HN1      HCL      0.330000       1.00800           0
     12153 MEMB     106      SOPE     HN2      HCL      0.330000       1.00800           0
     12154 MEMB     106      SOPE     HN3      HCL      0.330000       1.00800           0
     12155 MEMB     106      SOPE     C12      CTL2     0.130000       12.0110           0
     12156 MEMB     106      SOPE     H12A     HAL2     0.900000E-01   1.00800           0
     12157 MEMB     106      SOPE     H12B     HAL2     0.900000E-01   1.00800           0
     12158 MEMB     106      SOPE     C11      CTL2    -0.800000E-01   12.0110           0
     12159 MEMB     106      SOPE     H11A     HAL2     0.900000E-01   1.00800           0
     12160 MEMB     106      SOPE     H11B     HAL2     0.900000E-01   1.00800           0
     12161 MEMB     106      SOPE     P        PL        1.50000       30.9740           0
     12162 MEMB     106      SOPE     O13      O2L     -0.780000       15.9994           0
     12163 MEMB     106      SOPE     O14      O2L     -0.780000       15.9994           0
     12164 MEMB     106      SOPE     O12      OSLP    -0.570000       15.9994           0
     12165 MEMB     106      SOPE     O11      OSLP    -0.570000       15.9994           0
     12166 MEMB     106      SOPE     C1       CTL2    -0.800000E-01   12.0110           0
     12167 MEMB     106      SOPE     HA       HAL2     0.900000E-01   1.00800           0
     12168 MEMB     106      SOPE     HB       HAL2     0.900000E-01   1.00800           0
     12169 MEMB     106      SOPE     C2       CTL1     0.170000       12.0110           0
     12170 MEMB     106      SOPE     HS       HAL1     0.900000E-01   1.00800           0
     12171 MEMB     106      SOPE     O21      OSL     -0.490000       15.9994           0
     12172 MEMB     106      SOPE     C21      CL       0.900000       12.0110           0
     12173 MEMB     106      SOPE     O22      OBL     -0.630000       15.9994           0
     12174 MEMB     106      SOPE     C22      CTL2    -0.220000       12.0110           0
     12175 MEMB     106      SOPE     H2R      HAL2     0.900000E-01   1.00800           0
     12176 MEMB     106      SOPE     H2S      HAL2     0.900000E-01   1.00800           0
     12177 MEMB     106      SOPE     C3       CTL2     0.800000E-01   12.0110           0
     12178 MEMB     106      SOPE     HX       HAL2     0.900000E-01   1.00800           0
     12179 MEMB     106      SOPE     HY       HAL2     0.900000E-01   1.00800           0
     12180 MEMB     106      SOPE     O31      OSL     -0.490000       15.9994           0
     12181 MEMB     106      SOPE     C31      CL       0.900000       12.0110           0
     12182 MEMB     106      SOPE     O32      OBL     -0.630000       15.9994           0
     12183 MEMB     106      SOPE     C32      CTL2    -0.220000       12.0110           0
     12184 MEMB     106      SOPE     H2X      HAL2     0.900000E-01   1.00800           0
     12185 MEMB     106      SOPE     H2Y      HAL2     0.900000E-01   1.00800           0
     12186 MEMB     106      SOPE     C23      CTL2    -0.180000       12.0110           0
     12187 MEMB     106      SOPE     H3R      HAL2     0.900000E-01   1.00800           0
     12188 MEMB     106      SOPE     H3S      HAL2     0.900000E-01   1.00800           0
     12189 MEMB     106      SOPE     C24      CTL2    -0.180000       12.0110           0
     12190 MEMB     106      SOPE     H4R      HAL2     0.900000E-01   1.00800           0
     12191 MEMB     106      SOPE     H4S      HAL2     0.900000E-01   1.00800           0
     12192 MEMB     106      SOPE     C25      CTL2    -0.180000       12.0110           0
     12193 MEMB     106      SOPE     H5R      HAL2     0.900000E-01   1.00800           0
     12194 MEMB     106      SOPE     H5S      HAL2     0.900000E-01   1.00800           0
     12195 MEMB     106      SOPE     C26      CTL2    -0.180000       12.0110           0
     12196 MEMB     106      SOPE     H6R      HAL2     0.900000E-01   1.00800           0
     12197 MEMB     106      SOPE     H6S      HAL2     0.900000E-01   1.00800           0
     12198 MEMB     106      SOPE     C27      CTL2    -0.180000       12.0110           0
     12199 MEMB     106      SOPE     H7R      HAL2     0.900000E-01   1.00800           0
     12200 MEMB     106      SOPE     H7S      HAL2     0.900000E-01   1.00800           0
     12201 MEMB     106      SOPE     C28      CTL2    -0.180000       12.0110           0
     12202 MEMB     106      SOPE     H8R      HAL2     0.900000E-01   1.00800           0
     12203 MEMB     106      SOPE     H8S      HAL2     0.900000E-01   1.00800           0
     12204 MEMB     106      SOPE     C29      CEL1    -0.150000       12.0110           0
     12205 MEMB     106      SOPE     H91      HEL1     0.150000       1.00800           0
     12206 MEMB     106      SOPE     C210     CEL1    -0.150000       12.0110           0
     12207 MEMB     106      SOPE     H101     HEL1     0.150000       1.00800           0
     12208 MEMB     106      SOPE     C211     CTL2    -0.180000       12.0110           0
     12209 MEMB     106      SOPE     H11R     HAL2     0.900000E-01   1.00800           0
     12210 MEMB     106      SOPE     H11S     HAL2     0.900000E-01   1.00800           0
     12211 MEMB     106      SOPE     C212     CTL2    -0.180000       12.0110           0
     12212 MEMB     106      SOPE     H12R     HAL2     0.900000E-01   1.00800           0
     12213 MEMB     106      SOPE     H12S     HAL2     0.900000E-01   1.00800           0
     12214 MEMB     106      SOPE     C213     CTL2    -0.180000       12.0110           0
     12215 MEMB     106      SOPE     H13R     HAL2     0.900000E-01   1.00800           0
     12216 MEMB     106      SOPE     H13S     HAL2     0.900000E-01   1.00800           0
     12217 MEMB     106      SOPE     C214     CTL2    -0.180000       12.0110           0
     12218 MEMB     106      SOPE     H14R     HAL2     0.900000E-01   1.00800           0
     12219 MEMB     106      SOPE     H14S     HAL2     0.900000E-01   1.00800           0
     12220 MEMB     106      SOPE     C215     CTL2    -0.180000       12.0110           0
     12221 MEMB     106      SOPE     H15R     HAL2     0.900000E-01   1.00800           0
     12222 MEMB     106      SOPE     H15S     HAL2     0.900000E-01   1.00800           0
     12223 MEMB     106      SOPE     C216     CTL2    -0.180000       12.0110           0
     12224 MEMB     106      SOPE     H16R     HAL2     0.900000E-01   1.00800           0
     12225 MEMB     106      SOPE     H16S     HAL2     0.900000E-01   1.00800           0
     12226 MEMB     106      SOPE     C217     CTL2    -0.180000       12.0110           0
     12227 MEMB     106      SOPE     H17R     HAL2     0.900000E-01   1.00800           0
     12228 MEMB     106      SOPE     H17S     HAL2     0.900000E-01   1.00800           0
     12229 MEMB     106      SOPE     C218     CTL3    -0.270000       12.0110           0
     12230 MEMB     106      SOPE     H18R     HAL3     0.900000E-01   1.00800           0
     12231 MEMB     106      SOPE     H18S     HAL3     0.900000E-01   1.00800           0
     12232 MEMB     106      SOPE     H18T     HAL3     0.900000E-01   1.00800           0
     12233 MEMB     106      SOPE     C33      CTL2    -0.180000       12.0110           0
     12234 MEMB     106      SOPE     H3X      HAL2     0.900000E-01   1.00800           0
     12235 MEMB     106      SOPE     H3Y      HAL2     0.900000E-01   1.00800           0
     12236 MEMB     106      SOPE     C34      CTL2    -0.180000       12.0110           0
     12237 MEMB     106      SOPE     H4X      HAL2     0.900000E-01   1.00800           0
     12238 MEMB     106      SOPE     H4Y      HAL2     0.900000E-01   1.00800           0
     12239 MEMB     106      SOPE     C35      CTL2    -0.180000       12.0110           0
     12240 MEMB     106      SOPE     H5X      HAL2     0.900000E-01   1.00800           0
     12241 MEMB     106      SOPE     H5Y      HAL2     0.900000E-01   1.00800           0
     12242 MEMB     106      SOPE     C36      CTL2    -0.180000       12.0110           0
     12243 MEMB     106      SOPE     H6X      HAL2     0.900000E-01   1.00800           0
     12244 MEMB     106      SOPE     H6Y      HAL2     0.900000E-01   1.00800           0
     12245 MEMB     106      SOPE     C37      CTL2    -0.180000       12.0110           0
     12246 MEMB     106      SOPE     H7X      HAL2     0.900000E-01   1.00800           0
     12247 MEMB     106      SOPE     H7Y      HAL2     0.900000E-01   1.00800           0
     12248 MEMB     106      SOPE     C38      CTL2    -0.180000       12.0110           0
     12249 MEMB     106      SOPE     H8X      HAL2     0.900000E-01   1.00800           0
     12250 MEMB     106      SOPE     H8Y      HAL2     0.900000E-01   1.00800           0
     12251 MEMB     106      SOPE     C39      CTL2    -0.180000       12.0110           0
     12252 MEMB     106      SOPE     H9X      HAL2     0.900000E-01   1.00800           0
     12253 MEMB     106      SOPE     H9Y      HAL2     0.900000E-01   1.00800           0
     12254 MEMB     106      SOPE     C310     CTL2    -0.180000       12.0110           0
     12255 MEMB     106      SOPE     H10X     HAL2     0.900000E-01   1.00800           0
     12256 MEMB     106      SOPE     H10Y     HAL2     0.900000E-01   1.00800           0
     12257 MEMB     106      SOPE     C311     CTL2    -0.180000       12.0110           0
     12258 MEMB     106      SOPE     H11X     HAL2     0.900000E-01   1.00800           0
     12259 MEMB     106      SOPE     H11Y     HAL2     0.900000E-01   1.00800           0
     12260 MEMB     106      SOPE     C312     CTL2    -0.180000       12.0110           0
     12261 MEMB     106      SOPE     H12X     HAL2     0.900000E-01   1.00800           0
     12262 MEMB     106      SOPE     H12Y     HAL2     0.900000E-01   1.00800           0
     12263 MEMB     106      SOPE     C313     CTL2    -0.180000       12.0110           0
     12264 MEMB     106      SOPE     H13X     HAL2     0.900000E-01   1.00800           0
     12265 MEMB     106      SOPE     H13Y     HAL2     0.900000E-01   1.00800           0
     12266 MEMB     106      SOPE     C314     CTL2    -0.180000       12.0110           0
     12267 MEMB     106      SOPE     H14X     HAL2     0.900000E-01   1.00800           0
     12268 MEMB     106      SOPE     H14Y     HAL2     0.900000E-01   1.00800           0
     12269 MEMB     106      SOPE     C315     CTL2    -0.180000       12.0110           0
     12270 MEMB     106      SOPE     H15X     HAL2     0.900000E-01   1.00800           0
     12271 MEMB     106      SOPE     H15Y     HAL2     0.900000E-01   1.00800           0
     12272 MEMB     106      SOPE     C316     CTL2    -0.180000       12.0110           0
     12273 MEMB     106      SOPE     H16X     HAL2     0.900000E-01   1.00800           0
     12274 MEMB     106      SOPE     H16Y     HAL2     0.900000E-01   1.00800           0
     12275 MEMB     106      SOPE     C317     CTL2    -0.180000       12.0110           0
     12276 MEMB     106      SOPE     H17X     HAL2     0.900000E-01   1.00800           0
     12277 MEMB     106      SOPE     H17Y     HAL2     0.900000E-01   1.00800           0
     12278 MEMB     106      SOPE     C318     CTL3    -0.270000       12.0110           0
     12279 MEMB     106      SOPE     H18X     HAL3     0.900000E-01   1.00800           0
     12280 MEMB     106      SOPE     H18Y     HAL3     0.900000E-01   1.00800           0
     12281 MEMB     106      SOPE     H18Z     HAL3     0.900000E-01   1.00800           0
     12282 MEMB     107      OSM      N        NTL     -0.600000       14.0070           0
     12283 MEMB     107      OSM      C15      CTL5    -0.350000       12.0110           0
     12284 MEMB     107      OSM      H15A     HL       0.250000       1.00800           0
     12285 MEMB     107      OSM      H15B     HL       0.250000       1.00800           0
     12286 MEMB     107      OSM      H15C     HL       0.250000       1.00800           0
     12287 MEMB     107      OSM      C14      CTL5    -0.350000       12.0110           0
     12288 MEMB     107      OSM      H14A     HL       0.250000       1.00800           0
     12289 MEMB     107      OSM      H14B     HL       0.250000       1.00800           0
     12290 MEMB     107      OSM      H14C     HL       0.250000       1.00800           0
     12291 MEMB     107      OSM      C13      CTL5    -0.350000       12.0110           0
     12292 MEMB     107      OSM      H13A     HL       0.250000       1.00800           0
     12293 MEMB     107      OSM      H13B     HL       0.250000       1.00800           0
     12294 MEMB     107      OSM      H13C     HL       0.250000       1.00800           0
     12295 MEMB     107      OSM      C12      CTL2    -0.100000       12.0110           0
     12296 MEMB     107      OSM      H12A     HL       0.250000       1.00800           0
     12297 MEMB     107      OSM      H12B     HL       0.250000       1.00800           0
     12298 MEMB     107      OSM      C11      CTL2    -0.800000E-01   12.0110           0
     12299 MEMB     107      OSM      H11A     HAL2     0.900000E-01   1.00800           0
     12300 MEMB     107      OSM      H11B     HAL2     0.900000E-01   1.00800           0
     12301 MEMB     107      OSM      P        PL        1.50000       30.9740           0
     12302 MEMB     107      OSM      O13      O2L     -0.780000       15.9994           0
     12303 MEMB     107      OSM      O14      O2L     -0.780000       15.9994           0
     12304 MEMB     107      OSM      O11      OSLP    -0.570000       15.9994           0
     12305 MEMB     107      OSM      O12      OSLP    -0.570000       15.9994           0
     12306 MEMB     107      OSM      C1S      CTL2    -0.800000E-01   12.0110           0
     12307 MEMB     107      OSM      H1S      HAL2     0.900000E-01   1.00800           0
     12308 MEMB     107      OSM      H1T      HAL2     0.900000E-01   1.00800           0
     12309 MEMB     107      OSM      NF       NHL     -0.700000       14.0070           0
     12310 MEMB     107      OSM      HNF      H        0.350000       1.00800           0
     12311 MEMB     107      OSM      C2S      CTL1     0.300000       12.0110           0
     12312 MEMB     107      OSM      H2S      HAL1     0.500000E-01   1.00800           0
     12313 MEMB     107      OSM      C3S      CTO1     0.500000       12.0110           0
     12314 MEMB     107      OSM      H3S      HAL1    -0.110000       1.00800           0
     12315 MEMB     107      OSM      O3       OHL     -0.690000       15.9994           0
     12316 MEMB     107      OSM      HO3      HOL      0.300000       1.00800           0
     12317 MEMB     107      OSM      C4S      CEL3    -0.150000       12.0110           0
     12318 MEMB     107      OSM      H4S      HEL1     0.150000       1.00800           0
     12319 MEMB     107      OSM      C5S      CEL3    -0.150000       12.0110           0
     12320 MEMB     107      OSM      H5S      HEL1     0.150000       1.00800           0
     12321 MEMB     107      OSM      C6S      CTL2    -0.180000       12.0110           0
     12322 MEMB     107      OSM      H6S      HAL2     0.900000E-01   1.00800           0
     12323 MEMB     107      OSM      H6T      HAL2     0.900000E-01   1.00800           0
     12324 MEMB     107      OSM      C7S      CTL2    -0.180000       12.0110           0
     12325 MEMB     107      OSM      H7S      HAL2     0.900000E-01   1.00800           0
     12326 MEMB     107      OSM      H7T      HAL2     0.900000E-01   1.00800           0
     12327 MEMB     107      OSM      C8S      CTL2    -0.180000       12.0110           0
     12328 MEMB     107      OSM      H8S      HAL2     0.900000E-01   1.00800           0
     12329 MEMB     107      OSM      H8T      HAL2     0.900000E-01   1.00800           0
     12330 MEMB     107      OSM      C9S      CTL2    -0.180000       12.0110           0
     12331 MEMB     107      OSM      H9S      HAL2     0.900000E-01   1.00800           0
     12332 MEMB     107      OSM      H9T      HAL2     0.900000E-01   1.00800           0
     12333 MEMB     107      OSM      C10S     CTL2    -0.180000       12.0110           0
     12334 MEMB     107      OSM      H10S     HAL2     0.900000E-01   1.00800           0
     12335 MEMB     107      OSM      H10T     HAL2     0.900000E-01   1.00800           0
     12336 MEMB     107      OSM      C11S     CTL2    -0.180000       12.0110           0
     12337 MEMB     107      OSM      H11S     HAL2     0.900000E-01   1.00800           0
     12338 MEMB     107      OSM      H11T     HAL2     0.900000E-01   1.00800           0
     12339 MEMB     107      OSM      C12S     CTL2    -0.180000       12.0110           0
     12340 MEMB     107      OSM      H12S     HAL2     0.900000E-01   1.00800           0
     12341 MEMB     107      OSM      H12T     HAL2     0.900000E-01   1.00800           0
     12342 MEMB     107      OSM      C13S     CTL2    -0.180000       12.0110           0
     12343 MEMB     107      OSM      H13S     HAL2     0.900000E-01   1.00800           0
     12344 MEMB     107      OSM      H13T     HAL2     0.900000E-01   1.00800           0
     12345 MEMB     107      OSM      C14S     CTL2    -0.180000       12.0110           0
     12346 MEMB     107      OSM      H14S     HAL2     0.900000E-01   1.00800           0
     12347 MEMB     107      OSM      H14T     HAL2     0.900000E-01   1.00800           0
     12348 MEMB     107      OSM      C15S     CTL2    -0.180000       12.0110           0
     12349 MEMB     107      OSM      H15S     HAL2     0.900000E-01   1.00800           0
     12350 MEMB     107      OSM      H15T     HAL2     0.900000E-01   1.00800           0
     12351 MEMB     107      OSM      C16S     CTL2    -0.180000       12.0110           0
     12352 MEMB     107      OSM      H16S     HAL2     0.900000E-01   1.00800           0
     12353 MEMB     107      OSM      H16T     HAL2     0.900000E-01   1.00800           0
     12354 MEMB     107      OSM      C17S     CTL2    -0.180000       12.0110           0
     12355 MEMB     107      OSM      H17S     HAL2     0.900000E-01   1.00800           0
     12356 MEMB     107      OSM      H17T     HAL2     0.900000E-01   1.00800           0
     12357 MEMB     107      OSM      C18S     CTL3    -0.270000       12.0110           0
     12358 MEMB     107      OSM      H18S     HAL3     0.900000E-01   1.00800           0
     12359 MEMB     107      OSM      H18T     HAL3     0.900000E-01   1.00800           0
     12360 MEMB     107      OSM      H18U     HAL3     0.900000E-01   1.00800           0
     12361 MEMB     107      OSM      C1F      C        0.550000       12.0110           0
     12362 MEMB     107      OSM      OF       O       -0.600000       15.9994           0
     12363 MEMB     107      OSM      C2F      CTL2    -0.700000E-01   12.0110           0
     12364 MEMB     107      OSM      H2F      HAL2     0.600000E-01   1.00800           0
     12365 MEMB     107      OSM      H2G      HAL2     0.600000E-01   1.00800           0
     12366 MEMB     107      OSM      C3F      CTL2    -0.180000       12.0110           0
     12367 MEMB     107      OSM      H3F      HAL2     0.900000E-01   1.00800           0
     12368 MEMB     107      OSM      H3G      HAL2     0.900000E-01   1.00800           0
     12369 MEMB     107      OSM      C4F      CTL2    -0.180000       12.0110           0
     12370 MEMB     107      OSM      H4F      HAL2     0.900000E-01   1.00800           0
     12371 MEMB     107      OSM      H4G      HAL2     0.900000E-01   1.00800           0
     12372 MEMB     107      OSM      C5F      CTL2    -0.180000       12.0110           0
     12373 MEMB     107      OSM      H5F      HAL2     0.900000E-01   1.00800           0
     12374 MEMB     107      OSM      H5G      HAL2     0.900000E-01   1.00800           0
     12375 MEMB     107      OSM      C6F      CTL2    -0.180000       12.0110           0
     12376 MEMB     107      OSM      H6F      HAL2     0.900000E-01   1.00800           0
     12377 MEMB     107      OSM      H6G      HAL2     0.900000E-01   1.00800           0
     12378 MEMB     107      OSM      C7F      CTL2    -0.180000       12.0110           0
     12379 MEMB     107      OSM      H7F      HAL2     0.900000E-01   1.00800           0
     12380 MEMB     107      OSM      H7G      HAL2     0.900000E-01   1.00800           0
     12381 MEMB     107      OSM      C8F      CTL2    -0.180000       12.0110           0
     12382 MEMB     107      OSM      H8F      HAL2     0.900000E-01   1.00800           0
     12383 MEMB     107      OSM      H8G      HAL2     0.900000E-01   1.00800           0
     12384 MEMB     107      OSM      C9F      CEL1    -0.150000       12.0110           0
     12385 MEMB     107      OSM      H9F      HEL1     0.150000       1.00800           0
     12386 MEMB     107      OSM      C10F     CEL1    -0.150000       12.0110           0
     12387 MEMB     107      OSM      H10F     HEL1     0.150000       1.00800           0
     12388 MEMB     107      OSM      C11F     CTL2    -0.180000       12.0110           0
     12389 MEMB     107      OSM      H11F     HAL2     0.900000E-01   1.00800           0
     12390 MEMB     107      OSM      H11G     HAL2     0.900000E-01   1.00800           0
     12391 MEMB     107      OSM      C12F     CTL2    -0.180000       12.0110           0
     12392 MEMB     107      OSM      H12F     HAL2     0.900000E-01   1.00800           0
     12393 MEMB     107      OSM      H12G     HAL2     0.900000E-01   1.00800           0
     12394 MEMB     107      OSM      C13F     CTL2    -0.180000       12.0110           0
     12395 MEMB     107      OSM      H13F     HAL2     0.900000E-01   1.00800           0
     12396 MEMB     107      OSM      H13G     HAL2     0.900000E-01   1.00800           0
     12397 MEMB     107      OSM      C14F     CTL2    -0.180000       12.0110           0
     12398 MEMB     107      OSM      H14F     HAL2     0.900000E-01   1.00800           0
     12399 MEMB     107      OSM      H14G     HAL2     0.900000E-01   1.00800           0
     12400 MEMB     107      OSM      C15F     CTL2    -0.180000       12.0110           0
     12401 MEMB     107      OSM      H15F     HAL2     0.900000E-01   1.00800           0
     12402 MEMB     107      OSM      H15G     HAL2     0.900000E-01   1.00800           0
     12403 MEMB     107      OSM      C16F     CTL2    -0.180000       12.0110           0
     12404 MEMB     107      OSM      H16F     HAL2     0.900000E-01   1.00800           0
     12405 MEMB     107      OSM      H16G     HAL2     0.900000E-01   1.00800           0
     12406 MEMB     107      OSM      C17F     CTL2    -0.180000       12.0110           0
     12407 MEMB     107      OSM      H17F     HAL2     0.900000E-01   1.00800           0
     12408 MEMB     107      OSM      H17G     HAL2     0.900000E-01   1.00800           0
     12409 MEMB     107      OSM      C18F     CTL3    -0.270000       12.0110           0
     12410 MEMB     107      OSM      H18F     HAL3     0.900000E-01   1.00800           0
     12411 MEMB     107      OSM      H18G     HAL3     0.900000E-01   1.00800           0
     12412 MEMB     107      OSM      H18H     HAL3     0.900000E-01   1.00800           0
     12413 MEMB     108      SLPC     N        NTL     -0.600000       14.0070           0
     12414 MEMB     108      SLPC     C13      CTL5    -0.350000       12.0110           0
     12415 MEMB     108      SLPC     H13A     HL       0.250000       1.00800           0
     12416 MEMB     108      SLPC     H13B     HL       0.250000       1.00800           0
     12417 MEMB     108      SLPC     H13C     HL       0.250000       1.00800           0
     12418 MEMB     108      SLPC     C14      CTL5    -0.350000       12.0110           0
     12419 MEMB     108      SLPC     H14A     HL       0.250000       1.00800           0
     12420 MEMB     108      SLPC     H14B     HL       0.250000       1.00800           0
     12421 MEMB     108      SLPC     H14C     HL       0.250000       1.00800           0
     12422 MEMB     108      SLPC     C15      CTL5    -0.350000       12.0110           0
     12423 MEMB     108      SLPC     H15A     HL       0.250000       1.00800           0
     12424 MEMB     108      SLPC     H15B     HL       0.250000       1.00800           0
     12425 MEMB     108      SLPC     H15C     HL       0.250000       1.00800           0
     12426 MEMB     108      SLPC     C12      CTL2    -0.100000       12.0110           0
     12427 MEMB     108      SLPC     H12A     HL       0.250000       1.00800           0
     12428 MEMB     108      SLPC     H12B     HL       0.250000       1.00800           0
     12429 MEMB     108      SLPC     C11      CTL2    -0.800000E-01   12.0110           0
     12430 MEMB     108      SLPC     H11A     HAL2     0.900000E-01   1.00800           0
     12431 MEMB     108      SLPC     H11B     HAL2     0.900000E-01   1.00800           0
     12432 MEMB     108      SLPC     P        PL        1.50000       30.9740           0
     12433 MEMB     108      SLPC     O13      O2L     -0.780000       15.9994           0
     12434 MEMB     108      SLPC     O14      O2L     -0.780000       15.9994           0
     12435 MEMB     108      SLPC     O12      OSLP    -0.570000       15.9994           0
     12436 MEMB     108      SLPC     O11      OSLP    -0.570000       15.9994           0
     12437 MEMB     108      SLPC     C1       CTL2    -0.800000E-01   12.0110           0
     12438 MEMB     108      SLPC     HA       HAL2     0.900000E-01   1.00800           0
     12439 MEMB     108      SLPC     HB       HAL2     0.900000E-01   1.00800           0
     12440 MEMB     108      SLPC     C2       CTL1     0.170000       12.0110           0
     12441 MEMB     108      SLPC     HS       HAL1     0.900000E-01   1.00800           0
     12442 MEMB     108      SLPC     O21      OSL     -0.490000       15.9994           0
     12443 MEMB     108      SLPC     C21      CL       0.900000       12.0110           0
     12444 MEMB     108      SLPC     O22      OBL     -0.630000       15.9994           0
     12445 MEMB     108      SLPC     C22      CTL2    -0.220000       12.0110           0
     12446 MEMB     108      SLPC     H2R      HAL2     0.900000E-01   1.00800           0
     12447 MEMB     108      SLPC     H2S      HAL2     0.900000E-01   1.00800           0
     12448 MEMB     108      SLPC     C3       CTL2     0.800000E-01   12.0110           0
     12449 MEMB     108      SLPC     HX       HAL2     0.900000E-01   1.00800           0
     12450 MEMB     108      SLPC     HY       HAL2     0.900000E-01   1.00800           0
     12451 MEMB     108      SLPC     O31      OSL     -0.490000       15.9994           0
     12452 MEMB     108      SLPC     C31      CL       0.900000       12.0110           0
     12453 MEMB     108      SLPC     O32      OBL     -0.630000       15.9994           0
     12454 MEMB     108      SLPC     C32      CTL2    -0.220000       12.0110           0
     12455 MEMB     108      SLPC     H2X      HAL2     0.900000E-01   1.00800           0
     12456 MEMB     108      SLPC     H2Y      HAL2     0.900000E-01   1.00800           0
     12457 MEMB     108      SLPC     C23      CTL2    -0.180000       12.0110           0
     12458 MEMB     108      SLPC     H3R      HAL2     0.900000E-01   1.00800           0
     12459 MEMB     108      SLPC     H3S      HAL2     0.900000E-01   1.00800           0
     12460 MEMB     108      SLPC     C24      CTL2    -0.180000       12.0110           0
     12461 MEMB     108      SLPC     H4R      HAL2     0.900000E-01   1.00800           0
     12462 MEMB     108      SLPC     H4S      HAL2     0.900000E-01   1.00800           0
     12463 MEMB     108      SLPC     C25      CTL2    -0.180000       12.0110           0
     12464 MEMB     108      SLPC     H5R      HAL2     0.900000E-01   1.00800           0
     12465 MEMB     108      SLPC     H5S      HAL2     0.900000E-01   1.00800           0
     12466 MEMB     108      SLPC     C26      CTL2    -0.180000       12.0110           0
     12467 MEMB     108      SLPC     H6R      HAL2     0.900000E-01   1.00800           0
     12468 MEMB     108      SLPC     H6S      HAL2     0.900000E-01   1.00800           0
     12469 MEMB     108      SLPC     C27      CTL2    -0.180000       12.0110           0
     12470 MEMB     108      SLPC     H7R      HAL2     0.900000E-01   1.00800           0
     12471 MEMB     108      SLPC     H7S      HAL2     0.900000E-01   1.00800           0
     12472 MEMB     108      SLPC     C28      CTL2    -0.180000       12.0110           0
     12473 MEMB     108      SLPC     H8R      HAL2     0.900000E-01   1.00800           0
     12474 MEMB     108      SLPC     H8S      HAL2     0.900000E-01   1.00800           0
     12475 MEMB     108      SLPC     C29      CEL1    -0.150000       12.0110           0
     12476 MEMB     108      SLPC     H9R      HEL1     0.150000       1.00800           0
     12477 MEMB     108      SLPC     C210     CEL1    -0.150000       12.0110           0
     12478 MEMB     108      SLPC     H10R     HEL1     0.150000       1.00800           0
     12479 MEMB     108      SLPC     C211     CTL2    -0.180000       12.0110           0
     12480 MEMB     108      SLPC     H11R     HAL2     0.900000E-01   1.00800           0
     12481 MEMB     108      SLPC     H11S     HAL2     0.900000E-01   1.00800           0
     12482 MEMB     108      SLPC     C212     CEL1    -0.150000       12.0110           0
     12483 MEMB     108      SLPC     H12R     HEL1     0.150000       1.00800           0
     12484 MEMB     108      SLPC     C213     CEL1    -0.150000       12.0110           0
     12485 MEMB     108      SLPC     H13R     HEL1     0.150000       1.00800           0
     12486 MEMB     108      SLPC     C214     CTL2    -0.180000       12.0110           0
     12487 MEMB     108      SLPC     H14R     HAL2     0.900000E-01   1.00800           0
     12488 MEMB     108      SLPC     H14S     HAL2     0.900000E-01   1.00800           0
     12489 MEMB     108      SLPC     C215     CTL2    -0.180000       12.0110           0
     12490 MEMB     108      SLPC     H15R     HAL2     0.900000E-01   1.00800           0
     12491 MEMB     108      SLPC     H15S     HAL2     0.900000E-01   1.00800           0
     12492 MEMB     108      SLPC     C216     CTL2    -0.180000       12.0110           0
     12493 MEMB     108      SLPC     H16R     HAL2     0.900000E-01   1.00800           0
     12494 MEMB     108      SLPC     H16S     HAL2     0.900000E-01   1.00800           0
     12495 MEMB     108      SLPC     C217     CTL2    -0.180000       12.0110           0
     12496 MEMB     108      SLPC     H17R     HAL2     0.900000E-01   1.00800           0
     12497 MEMB     108      SLPC     H17S     HAL2     0.900000E-01   1.00800           0
     12498 MEMB     108      SLPC     C218     CTL3    -0.270000       12.0110           0
     12499 MEMB     108      SLPC     H18R     HAL3     0.900000E-01   1.00800           0
     12500 MEMB     108      SLPC     H18S     HAL3     0.900000E-01   1.00800           0
     12501 MEMB     108      SLPC     H18T     HAL3     0.900000E-01   1.00800           0
     12502 MEMB     108      SLPC     C33      CTL2    -0.180000       12.0110           0
     12503 MEMB     108      SLPC     H3X      HAL2     0.900000E-01   1.00800           0
     12504 MEMB     108      SLPC     H3Y      HAL2     0.900000E-01   1.00800           0
     12505 MEMB     108      SLPC     C34      CTL2    -0.180000       12.0110           0
     12506 MEMB     108      SLPC     H4X      HAL2     0.900000E-01   1.00800           0
     12507 MEMB     108      SLPC     H4Y      HAL2     0.900000E-01   1.00800           0
     12508 MEMB     108      SLPC     C35      CTL2    -0.180000       12.0110           0
     12509 MEMB     108      SLPC     H5X      HAL2     0.900000E-01   1.00800           0
     12510 MEMB     108      SLPC     H5Y      HAL2     0.900000E-01   1.00800           0
     12511 MEMB     108      SLPC     C36      CTL2    -0.180000       12.0110           0
     12512 MEMB     108      SLPC     H6X      HAL2     0.900000E-01   1.00800           0
     12513 MEMB     108      SLPC     H6Y      HAL2     0.900000E-01   1.00800           0
     12514 MEMB     108      SLPC     C37      CTL2    -0.180000       12.0110           0
     12515 MEMB     108      SLPC     H7X      HAL2     0.900000E-01   1.00800           0
     12516 MEMB     108      SLPC     H7Y      HAL2     0.900000E-01   1.00800           0
     12517 MEMB     108      SLPC     C38      CTL2    -0.180000       12.0110           0
     12518 MEMB     108      SLPC     H8X      HAL2     0.900000E-01   1.00800           0
     12519 MEMB     108      SLPC     H8Y      HAL2     0.900000E-01   1.00800           0
     12520 MEMB     108      SLPC     C39      CTL2    -0.180000       12.0110           0
     12521 MEMB     108      SLPC     H9X      HAL2     0.900000E-01   1.00800           0
     12522 MEMB     108      SLPC     H9Y      HAL2     0.900000E-01   1.00800           0
     12523 MEMB     108      SLPC     C310     CTL2    -0.180000       12.0110           0
     12524 MEMB     108      SLPC     H10X     HAL2     0.900000E-01   1.00800           0
     12525 MEMB     108      SLPC     H10Y     HAL2     0.900000E-01   1.00800           0
     12526 MEMB     108      SLPC     C311     CTL2    -0.180000       12.0110           0
     12527 MEMB     108      SLPC     H11X     HAL2     0.900000E-01   1.00800           0
     12528 MEMB     108      SLPC     H11Y     HAL2     0.900000E-01   1.00800           0
     12529 MEMB     108      SLPC     C312     CTL2    -0.180000       12.0110           0
     12530 MEMB     108      SLPC     H12X     HAL2     0.900000E-01   1.00800           0
     12531 MEMB     108      SLPC     H12Y     HAL2     0.900000E-01   1.00800           0
     12532 MEMB     108      SLPC     C313     CTL2    -0.180000       12.0110           0
     12533 MEMB     108      SLPC     H13X     HAL2     0.900000E-01   1.00800           0
     12534 MEMB     108      SLPC     H13Y     HAL2     0.900000E-01   1.00800           0
     12535 MEMB     108      SLPC     C314     CTL2    -0.180000       12.0110           0
     12536 MEMB     108      SLPC     H14X     HAL2     0.900000E-01   1.00800           0
     12537 MEMB     108      SLPC     H14Y     HAL2     0.900000E-01   1.00800           0
     12538 MEMB     108      SLPC     C315     CTL2    -0.180000       12.0110           0
     12539 MEMB     108      SLPC     H15X     HAL2     0.900000E-01   1.00800           0
     12540 MEMB     108      SLPC     H15Y     HAL2     0.900000E-01   1.00800           0
     12541 MEMB     108      SLPC     C316     CTL2    -0.180000       12.0110           0
     12542 MEMB     108      SLPC     H16X     HAL2     0.900000E-01   1.00800           0
     12543 MEMB     108      SLPC     H16Y     HAL2     0.900000E-01   1.00800           0
     12544 MEMB     108      SLPC     C317     CTL2    -0.180000       12.0110           0
     12545 MEMB     108      SLPC     H17X     HAL2     0.900000E-01   1.00800           0
     12546 MEMB     108      SLPC     H17Y     HAL2     0.900000E-01   1.00800           0
     12547 MEMB     108      SLPC     C318     CTL3    -0.270000       12.0110           0
     12548 MEMB     108      SLPC     H18X     HAL3     0.900000E-01   1.00800           0
     12549 MEMB     108      SLPC     H18Y     HAL3     0.900000E-01   1.00800           0
     12550 MEMB     108      SLPC     H18Z     HAL3     0.900000E-01   1.00800           0
     12551 MEMB     109      SAPC     N        NTL     -0.600000       14.0070           0
     12552 MEMB     109      SAPC     C12      CTL2    -0.100000       12.0110           0
     12553 MEMB     109      SAPC     H12A     HL       0.250000       1.00800           0
     12554 MEMB     109      SAPC     H12B     HL       0.250000       1.00800           0
     12555 MEMB     109      SAPC     C13      CTL5    -0.350000       12.0110           0
     12556 MEMB     109      SAPC     H13A     HL       0.250000       1.00800           0
     12557 MEMB     109      SAPC     H13B     HL       0.250000       1.00800           0
     12558 MEMB     109      SAPC     H13C     HL       0.250000       1.00800           0
     12559 MEMB     109      SAPC     C14      CTL5    -0.350000       12.0110           0
     12560 MEMB     109      SAPC     H14A     HL       0.250000       1.00800           0
     12561 MEMB     109      SAPC     H14B     HL       0.250000       1.00800           0
     12562 MEMB     109      SAPC     H14C     HL       0.250000       1.00800           0
     12563 MEMB     109      SAPC     C15      CTL5    -0.350000       12.0110           0
     12564 MEMB     109      SAPC     H15A     HL       0.250000       1.00800           0
     12565 MEMB     109      SAPC     H15B     HL       0.250000       1.00800           0
     12566 MEMB     109      SAPC     H15C     HL       0.250000       1.00800           0
     12567 MEMB     109      SAPC     C11      CTL2    -0.800000E-01   12.0110           0
     12568 MEMB     109      SAPC     H11A     HAL2     0.900000E-01   1.00800           0
     12569 MEMB     109      SAPC     H11B     HAL2     0.900000E-01   1.00800           0
     12570 MEMB     109      SAPC     P        PL        1.50000       30.9740           0
     12571 MEMB     109      SAPC     O13      O2L     -0.780000       15.9994           0
     12572 MEMB     109      SAPC     O14      O2L     -0.780000       15.9994           0
     12573 MEMB     109      SAPC     O12      OSLP    -0.570000       15.9994           0
     12574 MEMB     109      SAPC     O11      OSLP    -0.570000       15.9994           0
     12575 MEMB     109      SAPC     C1       CTL2    -0.800000E-01   12.0110           0
     12576 MEMB     109      SAPC     HA       HAL2     0.900000E-01   1.00800           0
     12577 MEMB     109      SAPC     HB       HAL2     0.900000E-01   1.00800           0
     12578 MEMB     109      SAPC     C2       CTL1     0.170000       12.0110           0
     12579 MEMB     109      SAPC     HS       HAL1     0.900000E-01   1.00800           0
     12580 MEMB     109      SAPC     O21      OSL     -0.490000       15.9994           0
     12581 MEMB     109      SAPC     C21      CL       0.900000       12.0110           0
     12582 MEMB     109      SAPC     O22      OBL     -0.630000       15.9994           0
     12583 MEMB     109      SAPC     C22      CTL2    -0.220000       12.0110           0
     12584 MEMB     109      SAPC     H2R      HAL2     0.900000E-01   1.00800           0
     12585 MEMB     109      SAPC     H2S      HAL2     0.900000E-01   1.00800           0
     12586 MEMB     109      SAPC     C3       CTL2     0.800000E-01   12.0110           0
     12587 MEMB     109      SAPC     HX       HAL2     0.900000E-01   1.00800           0
     12588 MEMB     109      SAPC     HY       HAL2     0.900000E-01   1.00800           0
     12589 MEMB     109      SAPC     O31      OSL     -0.490000       15.9994           0
     12590 MEMB     109      SAPC     C31      CL       0.900000       12.0110           0
     12591 MEMB     109      SAPC     O32      OBL     -0.630000       15.9994           0
     12592 MEMB     109      SAPC     C32      CTL2    -0.220000       12.0110           0
     12593 MEMB     109      SAPC     H2X      HAL2     0.900000E-01   1.00800           0
     12594 MEMB     109      SAPC     H2Y      HAL2     0.900000E-01   1.00800           0
     12595 MEMB     109      SAPC     C23      CTL2    -0.180000       12.0110           0
     12596 MEMB     109      SAPC     H3R      HAL2     0.900000E-01   1.00800           0
     12597 MEMB     109      SAPC     H3S      HAL2     0.900000E-01   1.00800           0
     12598 MEMB     109      SAPC     C24      CTL2    -0.180000       12.0110           0
     12599 MEMB     109      SAPC     H4R      HAL2     0.900000E-01   1.00800           0
     12600 MEMB     109      SAPC     H4S      HAL2     0.900000E-01   1.00800           0
     12601 MEMB     109      SAPC     C25      CEL1    -0.150000       12.0110           0
     12602 MEMB     109      SAPC     H5R      HEL1     0.150000       1.00800           0
     12603 MEMB     109      SAPC     C26      CEL1    -0.150000       12.0110           0
     12604 MEMB     109      SAPC     H6R      HEL1     0.150000       1.00800           0
     12605 MEMB     109      SAPC     C27      CTL2    -0.180000       12.0110           0
     12606 MEMB     109      SAPC     H7R      HAL2     0.900000E-01   1.00800           0
     12607 MEMB     109      SAPC     H7S      HAL2     0.900000E-01   1.00800           0
     12608 MEMB     109      SAPC     C28      CEL1    -0.150000       12.0110           0
     12609 MEMB     109      SAPC     H8R      HEL1     0.150000       1.00800           0
     12610 MEMB     109      SAPC     C29      CEL1    -0.150000       12.0110           0
     12611 MEMB     109      SAPC     H9R      HEL1     0.150000       1.00800           0
     12612 MEMB     109      SAPC     C210     CTL2    -0.180000       12.0110           0
     12613 MEMB     109      SAPC     H10R     HAL2     0.900000E-01   1.00800           0
     12614 MEMB     109      SAPC     H10S     HAL2     0.900000E-01   1.00800           0
     12615 MEMB     109      SAPC     C211     CEL1    -0.150000       12.0110           0
     12616 MEMB     109      SAPC     H11R     HEL1     0.150000       1.00800           0
     12617 MEMB     109      SAPC     C212     CEL1    -0.150000       12.0110           0
     12618 MEMB     109      SAPC     H12R     HEL1     0.150000       1.00800           0
     12619 MEMB     109      SAPC     C213     CTL2    -0.180000       12.0110           0
     12620 MEMB     109      SAPC     H13R     HAL2     0.900000E-01   1.00800           0
     12621 MEMB     109      SAPC     H13S     HAL2     0.900000E-01   1.00800           0
     12622 MEMB     109      SAPC     C214     CEL1    -0.150000       12.0110           0
     12623 MEMB     109      SAPC     H14R     HEL1     0.150000       1.00800           0
     12624 MEMB     109      SAPC     C215     CEL1    -0.150000       12.0110           0
     12625 MEMB     109      SAPC     H15R     HEL1     0.150000       1.00800           0
     12626 MEMB     109      SAPC     C216     CTL2    -0.180000       12.0110           0
     12627 MEMB     109      SAPC     H16R     HAL2     0.900000E-01   1.00800           0
     12628 MEMB     109      SAPC     H16S     HAL2     0.900000E-01   1.00800           0
     12629 MEMB     109      SAPC     C217     CTL2    -0.180000       12.0110           0
     12630 MEMB     109      SAPC     H17R     HAL2     0.900000E-01   1.00800           0
     12631 MEMB     109      SAPC     H17S     HAL2     0.900000E-01   1.00800           0
     12632 MEMB     109      SAPC     C218     CTL2    -0.270000       12.0110           0
     12633 MEMB     109      SAPC     H18R     HAL2     0.900000E-01   1.00800           0
     12634 MEMB     109      SAPC     H18S     HAL2     0.900000E-01   1.00800           0
     12635 MEMB     109      SAPC     C219     CTL2    -0.180000       12.0110           0
     12636 MEMB     109      SAPC     H19R     HAL2     0.900000E-01   1.00800           0
     12637 MEMB     109      SAPC     H19S     HAL2     0.900000E-01   1.00800           0
     12638 MEMB     109      SAPC     C220     CTL3    -0.180000       12.0110           0
     12639 MEMB     109      SAPC     H20R     HAL3     0.900000E-01   1.00800           0
     12640 MEMB     109      SAPC     H20S     HAL3     0.900000E-01   1.00800           0
     12641 MEMB     109      SAPC     H20T     HAL3     0.900000E-01   1.00800           0
     12642 MEMB     109      SAPC     C33      CTL2    -0.180000       12.0110           0
     12643 MEMB     109      SAPC     H3X      HAL2     0.900000E-01   1.00800           0
     12644 MEMB     109      SAPC     H3Y      HAL2     0.900000E-01   1.00800           0
     12645 MEMB     109      SAPC     C34      CTL2    -0.180000       12.0110           0
     12646 MEMB     109      SAPC     H4X      HAL2     0.900000E-01   1.00800           0
     12647 MEMB     109      SAPC     H4Y      HAL2     0.900000E-01   1.00800           0
     12648 MEMB     109      SAPC     C35      CTL2    -0.180000       12.0110           0
     12649 MEMB     109      SAPC     H5X      HAL2     0.900000E-01   1.00800           0
     12650 MEMB     109      SAPC     H5Y      HAL2     0.900000E-01   1.00800           0
     12651 MEMB     109      SAPC     C36      CTL2    -0.180000       12.0110           0
     12652 MEMB     109      SAPC     H6X      HAL2     0.900000E-01   1.00800           0
     12653 MEMB     109      SAPC     H6Y      HAL2     0.900000E-01   1.00800           0
     12654 MEMB     109      SAPC     C37      CTL2    -0.180000       12.0110           0
     12655 MEMB     109      SAPC     H7X      HAL2     0.900000E-01   1.00800           0
     12656 MEMB     109      SAPC     H7Y      HAL2     0.900000E-01   1.00800           0
     12657 MEMB     109      SAPC     C38      CTL2    -0.180000       12.0110           0
     12658 MEMB     109      SAPC     H8X      HAL2     0.900000E-01   1.00800           0
     12659 MEMB     109      SAPC     H8Y      HAL2     0.900000E-01   1.00800           0
     12660 MEMB     109      SAPC     C39      CTL2    -0.180000       12.0110           0
     12661 MEMB     109      SAPC     H9X      HAL2     0.900000E-01   1.00800           0
     12662 MEMB     109      SAPC     H9Y      HAL2     0.900000E-01   1.00800           0
     12663 MEMB     109      SAPC     C310     CTL2    -0.180000       12.0110           0
     12664 MEMB     109      SAPC     H10X     HAL2     0.900000E-01   1.00800           0
     12665 MEMB     109      SAPC     H10Y     HAL2     0.900000E-01   1.00800           0
     12666 MEMB     109      SAPC     C311     CTL2    -0.180000       12.0110           0
     12667 MEMB     109      SAPC     H11X     HAL2     0.900000E-01   1.00800           0
     12668 MEMB     109      SAPC     H11Y     HAL2     0.900000E-01   1.00800           0
     12669 MEMB     109      SAPC     C312     CTL2    -0.180000       12.0110           0
     12670 MEMB     109      SAPC     H12X     HAL2     0.900000E-01   1.00800           0
     12671 MEMB     109      SAPC     H12Y     HAL2     0.900000E-01   1.00800           0
     12672 MEMB     109      SAPC     C313     CTL2    -0.180000       12.0110           0
     12673 MEMB     109      SAPC     H13X     HAL2     0.900000E-01   1.00800           0
     12674 MEMB     109      SAPC     H13Y     HAL2     0.900000E-01   1.00800           0
     12675 MEMB     109      SAPC     C314     CTL2    -0.180000       12.0110           0
     12676 MEMB     109      SAPC     H14X     HAL2     0.900000E-01   1.00800           0
     12677 MEMB     109      SAPC     H14Y     HAL2     0.900000E-01   1.00800           0
     12678 MEMB     109      SAPC     C315     CTL2    -0.180000       12.0110           0
     12679 MEMB     109      SAPC     H15X     HAL2     0.900000E-01   1.00800           0
     12680 MEMB     109      SAPC     H15Y     HAL2     0.900000E-01   1.00800           0
     12681 MEMB     109      SAPC     C316     CTL2    -0.180000       12.0110           0
     12682 MEMB     109      SAPC     H16X     HAL2     0.900000E-01   1.00800           0
     12683 MEMB     109      SAPC     H16Y     HAL2     0.900000E-01   1.00800           0
     12684 MEMB     109      SAPC     C317     CTL2    -0.180000       12.0110           0
     12685 MEMB     109      SAPC     H17X     HAL2     0.900000E-01   1.00800           0
     12686 MEMB     109      SAPC     H17Y     HAL2     0.900000E-01   1.00800           0
     12687 MEMB     109      SAPC     C318     CTL3    -0.270000       12.0110           0
     12688 MEMB     109      SAPC     H18X     HAL3     0.900000E-01   1.00800           0
     12689 MEMB     109      SAPC     H18Y     HAL3     0.900000E-01   1.00800           0
     12690 MEMB     109      SAPC     H18Z     HAL3     0.900000E-01   1.00800           0
     12691 MEMB     110      CHL1     C3       CRL1     0.140000       12.0110           0
     12692 MEMB     110      CHL1     H3       HGA1     0.900000E-01   1.00800           0
     12693 MEMB     110      CHL1     O3       OHL     -0.660000       15.9994           0
     12694 MEMB     110      CHL1     H3'      HOL      0.430000       1.00800           0
     12695 MEMB     110      CHL1     C4       CRL2    -0.180000       12.0110           0
     12696 MEMB     110      CHL1     H4A      HGA2     0.900000E-01   1.00800           0
     12697 MEMB     110      CHL1     H4B      HGA2     0.900000E-01   1.00800           0
     12698 MEMB     110      CHL1     C5       CEL1      0.00000       12.0110           0
     12699 MEMB     110      CHL1     C6       CEL1    -0.150000       12.0110           0
     12700 MEMB     110      CHL1     H6       HEL1     0.150000       1.00800           0
     12701 MEMB     110      CHL1     C7       CRL2    -0.180000       12.0110           0
     12702 MEMB     110      CHL1     H7A      HGA2     0.900000E-01   1.00800           0
     12703 MEMB     110      CHL1     H7B      HGA2     0.900000E-01   1.00800           0
     12704 MEMB     110      CHL1     C8       CRL1    -0.900000E-01   12.0110           0
     12705 MEMB     110      CHL1     H8       HGA1     0.900000E-01   1.00800           0
     12706 MEMB     110      CHL1     C14      CRL1    -0.900000E-01   12.0110           0
     12707 MEMB     110      CHL1     H14      HGA1     0.900000E-01   1.00800           0
     12708 MEMB     110      CHL1     C15      CRL2    -0.180000       12.0110           0
     12709 MEMB     110      CHL1     H15A     HGA2     0.900000E-01   1.00800           0
     12710 MEMB     110      CHL1     H15B     HGA2     0.900000E-01   1.00800           0
     12711 MEMB     110      CHL1     C16      CRL2    -0.180000       12.0110           0
     12712 MEMB     110      CHL1     H16A     HGA2     0.900000E-01   1.00800           0
     12713 MEMB     110      CHL1     H16B     HGA2     0.900000E-01   1.00800           0
     12714 MEMB     110      CHL1     C17      CRL1    -0.900000E-01   12.0110           0
     12715 MEMB     110      CHL1     H17      HGA1     0.900000E-01   1.00800           0
     12716 MEMB     110      CHL1     C13      CRL1      0.00000       12.0110           0
     12717 MEMB     110      CHL1     C18      CTL3    -0.270000       12.0110           0
     12718 MEMB     110      CHL1     H18A     HAL3     0.900000E-01   1.00800           0
     12719 MEMB     110      CHL1     H18B     HAL3     0.900000E-01   1.00800           0
     12720 MEMB     110      CHL1     H18C     HAL3     0.900000E-01   1.00800           0
     12721 MEMB     110      CHL1     C12      CRL2    -0.180000       12.0110           0
     12722 MEMB     110      CHL1     H12A     HGA2     0.900000E-01   1.00800           0
     12723 MEMB     110      CHL1     H12B     HGA2     0.900000E-01   1.00800           0
     12724 MEMB     110      CHL1     C11      CRL2    -0.180000       12.0110           0
     12725 MEMB     110      CHL1     H11A     HGA2     0.900000E-01   1.00800           0
     12726 MEMB     110      CHL1     H11B     HGA2     0.900000E-01   1.00800           0
     12727 MEMB     110      CHL1     C9       CRL1    -0.900000E-01   12.0110           0
     12728 MEMB     110      CHL1     H9       HGA1     0.900000E-01   1.00800           0
     12729 MEMB     110      CHL1     C10      CRL1      0.00000       12.0110           0
     12730 MEMB     110      CHL1     C19      CTL3    -0.270000       12.0110           0
     12731 MEMB     110      CHL1     H19A     HAL3     0.900000E-01   1.00800           0
     12732 MEMB     110      CHL1     H19B     HAL3     0.900000E-01   1.00800           0
     12733 MEMB     110      CHL1     H19C     HAL3     0.900000E-01   1.00800           0
     12734 MEMB     110      CHL1     C1       CRL2    -0.180000       12.0110           0
     12735 MEMB     110      CHL1     H1A      HGA2     0.900000E-01   1.00800           0
     12736 MEMB     110      CHL1     H1B      HGA2     0.900000E-01   1.00800           0
     12737 MEMB     110      CHL1     C2       CRL2    -0.180000       12.0110           0
     12738 MEMB     110      CHL1     H2A      HGA2     0.900000E-01   1.00800           0
     12739 MEMB     110      CHL1     H2B      HGA2     0.900000E-01   1.00800           0
     12740 MEMB     110      CHL1     C20      CTL1    -0.900000E-01   12.0110           0
     12741 MEMB     110      CHL1     H20      HAL1     0.900000E-01   1.00800           0
     12742 MEMB     110      CHL1     C21      CTL3    -0.270000       12.0110           0
     12743 MEMB     110      CHL1     H21A     HAL3     0.900000E-01   1.00800           0
     12744 MEMB     110      CHL1     H21B     HAL3     0.900000E-01   1.00800           0
     12745 MEMB     110      CHL1     H21C     HAL3     0.900000E-01   1.00800           0
     12746 MEMB     110      CHL1     C22      CTL2    -0.180000       12.0110           0
     12747 MEMB     110      CHL1     H22A     HAL2     0.900000E-01   1.00800           0
     12748 MEMB     110      CHL1     H22B     HAL2     0.900000E-01   1.00800           0
     12749 MEMB     110      CHL1     C23      CTL2    -0.180000       12.0110           0
     12750 MEMB     110      CHL1     H23A     HAL2     0.900000E-01   1.00800           0
     12751 MEMB     110      CHL1     H23B     HAL2     0.900000E-01   1.00800           0
     12752 MEMB     110      CHL1     C24      CTL2    -0.180000       12.0110           0
     12753 MEMB     110      CHL1     H24A     HAL2     0.900000E-01   1.00800           0
     12754 MEMB     110      CHL1     H24B     HAL2     0.900000E-01   1.00800           0
     12755 MEMB     110      CHL1     C25      CTL1    -0.900000E-01   12.0110           0
     12756 MEMB     110      CHL1     H25      HAL1     0.900000E-01   1.00800           0
     12757 MEMB     110      CHL1     C26      CTL3    -0.270000       12.0110           0
     12758 MEMB     110      CHL1     H26A     HAL3     0.900000E-01   1.00800           0
     12759 MEMB     110      CHL1     H26B     HAL3     0.900000E-01   1.00800           0
     12760 MEMB     110      CHL1     H26C     HAL3     0.900000E-01   1.00800           0
     12761 MEMB     110      CHL1     C27      CTL3    -0.270000       12.0110           0
     12762 MEMB     110      CHL1     H27A     HAL3     0.900000E-01   1.00800           0
     12763 MEMB     110      CHL1     H27B     HAL3     0.900000E-01   1.00800           0
     12764 MEMB     110      CHL1     H27C     HAL3     0.900000E-01   1.00800           0
     12765 MEMB     111      CHL1     C3       CRL1     0.140000       12.0110           0
     12766 MEMB     111      CHL1     H3       HGA1     0.900000E-01   1.00800           0
     12767 MEMB     111      CHL1     O3       OHL     -0.660000       15.9994           0
     12768 MEMB     111      CHL1     H3'      HOL      0.430000       1.00800           0
     12769 MEMB     111      CHL1     C4       CRL2    -0.180000       12.0110           0
     12770 MEMB     111      CHL1     H4A      HGA2     0.900000E-01   1.00800           0
     12771 MEMB     111      CHL1     H4B      HGA2     0.900000E-01   1.00800           0
     12772 MEMB     111      CHL1     C5       CEL1      0.00000       12.0110           0
     12773 MEMB     111      CHL1     C6       CEL1    -0.150000       12.0110           0
     12774 MEMB     111      CHL1     H6       HEL1     0.150000       1.00800           0
     12775 MEMB     111      CHL1     C7       CRL2    -0.180000       12.0110           0
     12776 MEMB     111      CHL1     H7A      HGA2     0.900000E-01   1.00800           0
     12777 MEMB     111      CHL1     H7B      HGA2     0.900000E-01   1.00800           0
     12778 MEMB     111      CHL1     C8       CRL1    -0.900000E-01   12.0110           0
     12779 MEMB     111      CHL1     H8       HGA1     0.900000E-01   1.00800           0
     12780 MEMB     111      CHL1     C14      CRL1    -0.900000E-01   12.0110           0
     12781 MEMB     111      CHL1     H14      HGA1     0.900000E-01   1.00800           0
     12782 MEMB     111      CHL1     C15      CRL2    -0.180000       12.0110           0
     12783 MEMB     111      CHL1     H15A     HGA2     0.900000E-01   1.00800           0
     12784 MEMB     111      CHL1     H15B     HGA2     0.900000E-01   1.00800           0
     12785 MEMB     111      CHL1     C16      CRL2    -0.180000       12.0110           0
     12786 MEMB     111      CHL1     H16A     HGA2     0.900000E-01   1.00800           0
     12787 MEMB     111      CHL1     H16B     HGA2     0.900000E-01   1.00800           0
     12788 MEMB     111      CHL1     C17      CRL1    -0.900000E-01   12.0110           0
     12789 MEMB     111      CHL1     H17      HGA1     0.900000E-01   1.00800           0
     12790 MEMB     111      CHL1     C13      CRL1      0.00000       12.0110           0
     12791 MEMB     111      CHL1     C18      CTL3    -0.270000       12.0110           0
     12792 MEMB     111      CHL1     H18A     HAL3     0.900000E-01   1.00800           0
     12793 MEMB     111      CHL1     H18B     HAL3     0.900000E-01   1.00800           0
     12794 MEMB     111      CHL1     H18C     HAL3     0.900000E-01   1.00800           0
     12795 MEMB     111      CHL1     C12      CRL2    -0.180000       12.0110           0
     12796 MEMB     111      CHL1     H12A     HGA2     0.900000E-01   1.00800           0
     12797 MEMB     111      CHL1     H12B     HGA2     0.900000E-01   1.00800           0
     12798 MEMB     111      CHL1     C11      CRL2    -0.180000       12.0110           0
     12799 MEMB     111      CHL1     H11A     HGA2     0.900000E-01   1.00800           0
     12800 MEMB     111      CHL1     H11B     HGA2     0.900000E-01   1.00800           0
     12801 MEMB     111      CHL1     C9       CRL1    -0.900000E-01   12.0110           0
     12802 MEMB     111      CHL1     H9       HGA1     0.900000E-01   1.00800           0
     12803 MEMB     111      CHL1     C10      CRL1      0.00000       12.0110           0
     12804 MEMB     111      CHL1     C19      CTL3    -0.270000       12.0110           0
     12805 MEMB     111      CHL1     H19A     HAL3     0.900000E-01   1.00800           0
     12806 MEMB     111      CHL1     H19B     HAL3     0.900000E-01   1.00800           0
     12807 MEMB     111      CHL1     H19C     HAL3     0.900000E-01   1.00800           0
     12808 MEMB     111      CHL1     C1       CRL2    -0.180000       12.0110           0
     12809 MEMB     111      CHL1     H1A      HGA2     0.900000E-01   1.00800           0
     12810 MEMB     111      CHL1     H1B      HGA2     0.900000E-01   1.00800           0
     12811 MEMB     111      CHL1     C2       CRL2    -0.180000       12.0110           0
     12812 MEMB     111      CHL1     H2A      HGA2     0.900000E-01   1.00800           0
     12813 MEMB     111      CHL1     H2B      HGA2     0.900000E-01   1.00800           0
     12814 MEMB     111      CHL1     C20      CTL1    -0.900000E-01   12.0110           0
     12815 MEMB     111      CHL1     H20      HAL1     0.900000E-01   1.00800           0
     12816 MEMB     111      CHL1     C21      CTL3    -0.270000       12.0110           0
     12817 MEMB     111      CHL1     H21A     HAL3     0.900000E-01   1.00800           0
     12818 MEMB     111      CHL1     H21B     HAL3     0.900000E-01   1.00800           0
     12819 MEMB     111      CHL1     H21C     HAL3     0.900000E-01   1.00800           0
     12820 MEMB     111      CHL1     C22      CTL2    -0.180000       12.0110           0
     12821 MEMB     111      CHL1     H22A     HAL2     0.900000E-01   1.00800           0
     12822 MEMB     111      CHL1     H22B     HAL2     0.900000E-01   1.00800           0
     12823 MEMB     111      CHL1     C23      CTL2    -0.180000       12.0110           0
     12824 MEMB     111      CHL1     H23A     HAL2     0.900000E-01   1.00800           0
     12825 MEMB     111      CHL1     H23B     HAL2     0.900000E-01   1.00800           0
     12826 MEMB     111      CHL1     C24      CTL2    -0.180000       12.0110           0
     12827 MEMB     111      CHL1     H24A     HAL2     0.900000E-01   1.00800           0
     12828 MEMB     111      CHL1     H24B     HAL2     0.900000E-01   1.00800           0
     12829 MEMB     111      CHL1     C25      CTL1    -0.900000E-01   12.0110           0
     12830 MEMB     111      CHL1     H25      HAL1     0.900000E-01   1.00800           0
     12831 MEMB     111      CHL1     C26      CTL3    -0.270000       12.0110           0
     12832 MEMB     111      CHL1     H26A     HAL3     0.900000E-01   1.00800           0
     12833 MEMB     111      CHL1     H26B     HAL3     0.900000E-01   1.00800           0
     12834 MEMB     111      CHL1     H26C     HAL3     0.900000E-01   1.00800           0
     12835 MEMB     111      CHL1     C27      CTL3    -0.270000       12.0110           0
     12836 MEMB     111      CHL1     H27A     HAL3     0.900000E-01   1.00800           0
     12837 MEMB     111      CHL1     H27B     HAL3     0.900000E-01   1.00800           0
     12838 MEMB     111      CHL1     H27C     HAL3     0.900000E-01   1.00800           0
     12839 MEMB     112      SAPE     N        NH3L    -0.300000       14.0070           0
     12840 MEMB     112      SAPE     HN1      HCL      0.330000       1.00800           0
     12841 MEMB     112      SAPE     HN2      HCL      0.330000       1.00800           0
     12842 MEMB     112      SAPE     HN3      HCL      0.330000       1.00800           0
     12843 MEMB     112      SAPE     C12      CTL2     0.130000       12.0110           0
     12844 MEMB     112      SAPE     H12A     HAL2     0.900000E-01   1.00800           0
     12845 MEMB     112      SAPE     H12B     HAL2     0.900000E-01   1.00800           0
     12846 MEMB     112      SAPE     C11      CTL2    -0.800000E-01   12.0110           0
     12847 MEMB     112      SAPE     H11A     HAL2     0.900000E-01   1.00800           0
     12848 MEMB     112      SAPE     H11B     HAL2     0.900000E-01   1.00800           0
     12849 MEMB     112      SAPE     P        PL        1.50000       30.9740           0
     12850 MEMB     112      SAPE     O13      O2L     -0.780000       15.9994           0
     12851 MEMB     112      SAPE     O14      O2L     -0.780000       15.9994           0
     12852 MEMB     112      SAPE     O12      OSLP    -0.570000       15.9994           0
     12853 MEMB     112      SAPE     O11      OSLP    -0.570000       15.9994           0
     12854 MEMB     112      SAPE     C1       CTL2    -0.800000E-01   12.0110           0
     12855 MEMB     112      SAPE     HA       HAL2     0.900000E-01   1.00800           0
     12856 MEMB     112      SAPE     HB       HAL2     0.900000E-01   1.00800           0
     12857 MEMB     112      SAPE     C2       CTL1     0.170000       12.0110           0
     12858 MEMB     112      SAPE     HS       HAL1     0.900000E-01   1.00800           0
     12859 MEMB     112      SAPE     O21      OSL     -0.490000       15.9994           0
     12860 MEMB     112      SAPE     C21      CL       0.900000       12.0110           0
     12861 MEMB     112      SAPE     O22      OBL     -0.630000       15.9994           0
     12862 MEMB     112      SAPE     C22      CTL2    -0.220000       12.0110           0
     12863 MEMB     112      SAPE     H2R      HAL2     0.900000E-01   1.00800           0
     12864 MEMB     112      SAPE     H2S      HAL2     0.900000E-01   1.00800           0
     12865 MEMB     112      SAPE     C3       CTL2     0.800000E-01   12.0110           0
     12866 MEMB     112      SAPE     HX       HAL2     0.900000E-01   1.00800           0
     12867 MEMB     112      SAPE     HY       HAL2     0.900000E-01   1.00800           0
     12868 MEMB     112      SAPE     O31      OSL     -0.490000       15.9994           0
     12869 MEMB     112      SAPE     C31      CL       0.900000       12.0110           0
     12870 MEMB     112      SAPE     O32      OBL     -0.630000       15.9994           0
     12871 MEMB     112      SAPE     C32      CTL2    -0.220000       12.0110           0
     12872 MEMB     112      SAPE     H2X      HAL2     0.900000E-01   1.00800           0
     12873 MEMB     112      SAPE     H2Y      HAL2     0.900000E-01   1.00800           0
     12874 MEMB     112      SAPE     C23      CTL2    -0.180000       12.0110           0
     12875 MEMB     112      SAPE     H3R      HAL2     0.900000E-01   1.00800           0
     12876 MEMB     112      SAPE     H3S      HAL2     0.900000E-01   1.00800           0
     12877 MEMB     112      SAPE     C24      CTL2    -0.180000       12.0110           0
     12878 MEMB     112      SAPE     H4R      HAL2     0.900000E-01   1.00800           0
     12879 MEMB     112      SAPE     H4S      HAL2     0.900000E-01   1.00800           0
     12880 MEMB     112      SAPE     C25      CEL1    -0.150000       12.0110           0
     12881 MEMB     112      SAPE     H5R      HEL1     0.150000       1.00800           0
     12882 MEMB     112      SAPE     C26      CEL1    -0.150000       12.0110           0
     12883 MEMB     112      SAPE     H6R      HEL1     0.150000       1.00800           0
     12884 MEMB     112      SAPE     C27      CTL2    -0.180000       12.0110           0
     12885 MEMB     112      SAPE     H7R      HAL2     0.900000E-01   1.00800           0
     12886 MEMB     112      SAPE     H7S      HAL2     0.900000E-01   1.00800           0
     12887 MEMB     112      SAPE     C28      CEL1    -0.150000       12.0110           0
     12888 MEMB     112      SAPE     H8R      HEL1     0.150000       1.00800           0
     12889 MEMB     112      SAPE     C29      CEL1    -0.150000       12.0110           0
     12890 MEMB     112      SAPE     H9R      HEL1     0.150000       1.00800           0
     12891 MEMB     112      SAPE     C210     CTL2    -0.180000       12.0110           0
     12892 MEMB     112      SAPE     H10R     HAL2     0.900000E-01   1.00800           0
     12893 MEMB     112      SAPE     H10S     HAL2     0.900000E-01   1.00800           0
     12894 MEMB     112      SAPE     C211     CEL1    -0.150000       12.0110           0
     12895 MEMB     112      SAPE     H11R     HEL1     0.150000       1.00800           0
     12896 MEMB     112      SAPE     C212     CEL1    -0.150000       12.0110           0
     12897 MEMB     112      SAPE     H12R     HEL1     0.150000       1.00800           0
     12898 MEMB     112      SAPE     C213     CTL2    -0.180000       12.0110           0
     12899 MEMB     112      SAPE     H13R     HAL2     0.900000E-01   1.00800           0
     12900 MEMB     112      SAPE     H13S     HAL2     0.900000E-01   1.00800           0
     12901 MEMB     112      SAPE     C214     CEL1    -0.150000       12.0110           0
     12902 MEMB     112      SAPE     H14R     HEL1     0.150000       1.00800           0
     12903 MEMB     112      SAPE     C215     CEL1    -0.150000       12.0110           0
     12904 MEMB     112      SAPE     H15R     HEL1     0.150000       1.00800           0
     12905 MEMB     112      SAPE     C216     CTL2    -0.180000       12.0110           0
     12906 MEMB     112      SAPE     H16R     HAL2     0.900000E-01   1.00800           0
     12907 MEMB     112      SAPE     H16S     HAL2     0.900000E-01   1.00800           0
     12908 MEMB     112      SAPE     C217     CTL2    -0.180000       12.0110           0
     12909 MEMB     112      SAPE     H17R     HAL2     0.900000E-01   1.00800           0
     12910 MEMB     112      SAPE     H17S     HAL2     0.900000E-01   1.00800           0
     12911 MEMB     112      SAPE     C218     CTL2    -0.180000       12.0110           0
     12912 MEMB     112      SAPE     H18R     HAL2     0.900000E-01   1.00800           0
     12913 MEMB     112      SAPE     H18S     HAL2     0.900000E-01   1.00800           0
     12914 MEMB     112      SAPE     C219     CTL2    -0.180000       12.0110           0
     12915 MEMB     112      SAPE     H19R     HAL2     0.900000E-01   1.00800           0
     12916 MEMB     112      SAPE     H19S     HAL2     0.900000E-01   1.00800           0
     12917 MEMB     112      SAPE     C220     CTL3    -0.270000       12.0110           0
     12918 MEMB     112      SAPE     H20R     HAL3     0.900000E-01   1.00800           0
     12919 MEMB     112      SAPE     H20S     HAL3     0.900000E-01   1.00800           0
     12920 MEMB     112      SAPE     H20T     HAL3     0.900000E-01   1.00800           0
     12921 MEMB     112      SAPE     C33      CTL2    -0.180000       12.0110           0
     12922 MEMB     112      SAPE     H3X      HAL2     0.900000E-01   1.00800           0
     12923 MEMB     112      SAPE     H3Y      HAL2     0.900000E-01   1.00800           0
     12924 MEMB     112      SAPE     C34      CTL2    -0.180000       12.0110           0
     12925 MEMB     112      SAPE     H4X      HAL2     0.900000E-01   1.00800           0
     12926 MEMB     112      SAPE     H4Y      HAL2     0.900000E-01   1.00800           0
     12927 MEMB     112      SAPE     C35      CTL2    -0.180000       12.0110           0
     12928 MEMB     112      SAPE     H5X      HAL2     0.900000E-01   1.00800           0
     12929 MEMB     112      SAPE     H5Y      HAL2     0.900000E-01   1.00800           0
     12930 MEMB     112      SAPE     C36      CTL2    -0.180000       12.0110           0
     12931 MEMB     112      SAPE     H6X      HAL2     0.900000E-01   1.00800           0
     12932 MEMB     112      SAPE     H6Y      HAL2     0.900000E-01   1.00800           0
     12933 MEMB     112      SAPE     C37      CTL2    -0.180000       12.0110           0
     12934 MEMB     112      SAPE     H7X      HAL2     0.900000E-01   1.00800           0
     12935 MEMB     112      SAPE     H7Y      HAL2     0.900000E-01   1.00800           0
     12936 MEMB     112      SAPE     C38      CTL2    -0.180000       12.0110           0
     12937 MEMB     112      SAPE     H8X      HAL2     0.900000E-01   1.00800           0
     12938 MEMB     112      SAPE     H8Y      HAL2     0.900000E-01   1.00800           0
     12939 MEMB     112      SAPE     C39      CTL2    -0.180000       12.0110           0
     12940 MEMB     112      SAPE     H9X      HAL2     0.900000E-01   1.00800           0
     12941 MEMB     112      SAPE     H9Y      HAL2     0.900000E-01   1.00800           0
     12942 MEMB     112      SAPE     C310     CTL2    -0.180000       12.0110           0
     12943 MEMB     112      SAPE     H10X     HAL2     0.900000E-01   1.00800           0
     12944 MEMB     112      SAPE     H10Y     HAL2     0.900000E-01   1.00800           0
     12945 MEMB     112      SAPE     C311     CTL2    -0.180000       12.0110           0
     12946 MEMB     112      SAPE     H11X     HAL2     0.900000E-01   1.00800           0
     12947 MEMB     112      SAPE     H11Y     HAL2     0.900000E-01   1.00800           0
     12948 MEMB     112      SAPE     C312     CTL2    -0.180000       12.0110           0
     12949 MEMB     112      SAPE     H12X     HAL2     0.900000E-01   1.00800           0
     12950 MEMB     112      SAPE     H12Y     HAL2     0.900000E-01   1.00800           0
     12951 MEMB     112      SAPE     C313     CTL2    -0.180000       12.0110           0
     12952 MEMB     112      SAPE     H13X     HAL2     0.900000E-01   1.00800           0
     12953 MEMB     112      SAPE     H13Y     HAL2     0.900000E-01   1.00800           0
     12954 MEMB     112      SAPE     C314     CTL2    -0.180000       12.0110           0
     12955 MEMB     112      SAPE     H14X     HAL2     0.900000E-01   1.00800           0
     12956 MEMB     112      SAPE     H14Y     HAL2     0.900000E-01   1.00800           0
     12957 MEMB     112      SAPE     C315     CTL2    -0.180000       12.0110           0
     12958 MEMB     112      SAPE     H15X     HAL2     0.900000E-01   1.00800           0
     12959 MEMB     112      SAPE     H15Y     HAL2     0.900000E-01   1.00800           0
     12960 MEMB     112      SAPE     C316     CTL2    -0.180000       12.0110           0
     12961 MEMB     112      SAPE     H16X     HAL2     0.900000E-01   1.00800           0
     12962 MEMB     112      SAPE     H16Y     HAL2     0.900000E-01   1.00800           0
     12963 MEMB     112      SAPE     C317     CTL2    -0.180000       12.0110           0
     12964 MEMB     112      SAPE     H17X     HAL2     0.900000E-01   1.00800           0
     12965 MEMB     112      SAPE     H17Y     HAL2     0.900000E-01   1.00800           0
     12966 MEMB     112      SAPE     C318     CTL3    -0.270000       12.0110           0
     12967 MEMB     112      SAPE     H18X     HAL3     0.900000E-01   1.00800           0
     12968 MEMB     112      SAPE     H18Y     HAL3     0.900000E-01   1.00800           0
     12969 MEMB     112      SAPE     H18Z     HAL3     0.900000E-01   1.00800           0
     12970 MEMB     113      SAPC     N        NTL     -0.600000       14.0070           0
     12971 MEMB     113      SAPC     C12      CTL2    -0.100000       12.0110           0
     12972 MEMB     113      SAPC     H12A     HL       0.250000       1.00800           0
     12973 MEMB     113      SAPC     H12B     HL       0.250000       1.00800           0
     12974 MEMB     113      SAPC     C13      CTL5    -0.350000       12.0110           0
     12975 MEMB     113      SAPC     H13A     HL       0.250000       1.00800           0
     12976 MEMB     113      SAPC     H13B     HL       0.250000       1.00800           0
     12977 MEMB     113      SAPC     H13C     HL       0.250000       1.00800           0
     12978 MEMB     113      SAPC     C14      CTL5    -0.350000       12.0110           0
     12979 MEMB     113      SAPC     H14A     HL       0.250000       1.00800           0
     12980 MEMB     113      SAPC     H14B     HL       0.250000       1.00800           0
     12981 MEMB     113      SAPC     H14C     HL       0.250000       1.00800           0
     12982 MEMB     113      SAPC     C15      CTL5    -0.350000       12.0110           0
     12983 MEMB     113      SAPC     H15A     HL       0.250000       1.00800           0
     12984 MEMB     113      SAPC     H15B     HL       0.250000       1.00800           0
     12985 MEMB     113      SAPC     H15C     HL       0.250000       1.00800           0
     12986 MEMB     113      SAPC     C11      CTL2    -0.800000E-01   12.0110           0
     12987 MEMB     113      SAPC     H11A     HAL2     0.900000E-01   1.00800           0
     12988 MEMB     113      SAPC     H11B     HAL2     0.900000E-01   1.00800           0
     12989 MEMB     113      SAPC     P        PL        1.50000       30.9740           0
     12990 MEMB     113      SAPC     O13      O2L     -0.780000       15.9994           0
     12991 MEMB     113      SAPC     O14      O2L     -0.780000       15.9994           0
     12992 MEMB     113      SAPC     O12      OSLP    -0.570000       15.9994           0
     12993 MEMB     113      SAPC     O11      OSLP    -0.570000       15.9994           0
     12994 MEMB     113      SAPC     C1       CTL2    -0.800000E-01   12.0110           0
     12995 MEMB     113      SAPC     HA       HAL2     0.900000E-01   1.00800           0
     12996 MEMB     113      SAPC     HB       HAL2     0.900000E-01   1.00800           0
     12997 MEMB     113      SAPC     C2       CTL1     0.170000       12.0110           0
     12998 MEMB     113      SAPC     HS       HAL1     0.900000E-01   1.00800           0
     12999 MEMB     113      SAPC     O21      OSL     -0.490000       15.9994           0
     13000 MEMB     113      SAPC     C21      CL       0.900000       12.0110           0
     13001 MEMB     113      SAPC     O22      OBL     -0.630000       15.9994           0
     13002 MEMB     113      SAPC     C22      CTL2    -0.220000       12.0110           0
     13003 MEMB     113      SAPC     H2R      HAL2     0.900000E-01   1.00800           0
     13004 MEMB     113      SAPC     H2S      HAL2     0.900000E-01   1.00800           0
     13005 MEMB     113      SAPC     C3       CTL2     0.800000E-01   12.0110           0
     13006 MEMB     113      SAPC     HX       HAL2     0.900000E-01   1.00800           0
     13007 MEMB     113      SAPC     HY       HAL2     0.900000E-01   1.00800           0
     13008 MEMB     113      SAPC     O31      OSL     -0.490000       15.9994           0
     13009 MEMB     113      SAPC     C31      CL       0.900000       12.0110           0
     13010 MEMB     113      SAPC     O32      OBL     -0.630000       15.9994           0
     13011 MEMB     113      SAPC     C32      CTL2    -0.220000       12.0110           0
     13012 MEMB     113      SAPC     H2X      HAL2     0.900000E-01   1.00800           0
     13013 MEMB     113      SAPC     H2Y      HAL2     0.900000E-01   1.00800           0
     13014 MEMB     113      SAPC     C23      CTL2    -0.180000       12.0110           0
     13015 MEMB     113      SAPC     H3R      HAL2     0.900000E-01   1.00800           0
     13016 MEMB     113      SAPC     H3S      HAL2     0.900000E-01   1.00800           0
     13017 MEMB     113      SAPC     C24      CTL2    -0.180000       12.0110           0
     13018 MEMB     113      SAPC     H4R      HAL2     0.900000E-01   1.00800           0
     13019 MEMB     113      SAPC     H4S      HAL2     0.900000E-01   1.00800           0
     13020 MEMB     113      SAPC     C25      CEL1    -0.150000       12.0110           0
     13021 MEMB     113      SAPC     H5R      HEL1     0.150000       1.00800           0
     13022 MEMB     113      SAPC     C26      CEL1    -0.150000       12.0110           0
     13023 MEMB     113      SAPC     H6R      HEL1     0.150000       1.00800           0
     13024 MEMB     113      SAPC     C27      CTL2    -0.180000       12.0110           0
     13025 MEMB     113      SAPC     H7R      HAL2     0.900000E-01   1.00800           0
     13026 MEMB     113      SAPC     H7S      HAL2     0.900000E-01   1.00800           0
     13027 MEMB     113      SAPC     C28      CEL1    -0.150000       12.0110           0
     13028 MEMB     113      SAPC     H8R      HEL1     0.150000       1.00800           0
     13029 MEMB     113      SAPC     C29      CEL1    -0.150000       12.0110           0
     13030 MEMB     113      SAPC     H9R      HEL1     0.150000       1.00800           0
     13031 MEMB     113      SAPC     C210     CTL2    -0.180000       12.0110           0
     13032 MEMB     113      SAPC     H10R     HAL2     0.900000E-01   1.00800           0
     13033 MEMB     113      SAPC     H10S     HAL2     0.900000E-01   1.00800           0
     13034 MEMB     113      SAPC     C211     CEL1    -0.150000       12.0110           0
     13035 MEMB     113      SAPC     H11R     HEL1     0.150000       1.00800           0
     13036 MEMB     113      SAPC     C212     CEL1    -0.150000       12.0110           0
     13037 MEMB     113      SAPC     H12R     HEL1     0.150000       1.00800           0
     13038 MEMB     113      SAPC     C213     CTL2    -0.180000       12.0110           0
     13039 MEMB     113      SAPC     H13R     HAL2     0.900000E-01   1.00800           0
     13040 MEMB     113      SAPC     H13S     HAL2     0.900000E-01   1.00800           0
     13041 MEMB     113      SAPC     C214     CEL1    -0.150000       12.0110           0
     13042 MEMB     113      SAPC     H14R     HEL1     0.150000       1.00800           0
     13043 MEMB     113      SAPC     C215     CEL1    -0.150000       12.0110           0
     13044 MEMB     113      SAPC     H15R     HEL1     0.150000       1.00800           0
     13045 MEMB     113      SAPC     C216     CTL2    -0.180000       12.0110           0
     13046 MEMB     113      SAPC     H16R     HAL2     0.900000E-01   1.00800           0
     13047 MEMB     113      SAPC     H16S     HAL2     0.900000E-01   1.00800           0
     13048 MEMB     113      SAPC     C217     CTL2    -0.180000       12.0110           0
     13049 MEMB     113      SAPC     H17R     HAL2     0.900000E-01   1.00800           0
     13050 MEMB     113      SAPC     H17S     HAL2     0.900000E-01   1.00800           0
     13051 MEMB     113      SAPC     C218     CTL2    -0.270000       12.0110           0
     13052 MEMB     113      SAPC     H18R     HAL2     0.900000E-01   1.00800           0
     13053 MEMB     113      SAPC     H18S     HAL2     0.900000E-01   1.00800           0
     13054 MEMB     113      SAPC     C219     CTL2    -0.180000       12.0110           0
     13055 MEMB     113      SAPC     H19R     HAL2     0.900000E-01   1.00800           0
     13056 MEMB     113      SAPC     H19S     HAL2     0.900000E-01   1.00800           0
     13057 MEMB     113      SAPC     C220     CTL3    -0.180000       12.0110           0
     13058 MEMB     113      SAPC     H20R     HAL3     0.900000E-01   1.00800           0
     13059 MEMB     113      SAPC     H20S     HAL3     0.900000E-01   1.00800           0
     13060 MEMB     113      SAPC     H20T     HAL3     0.900000E-01   1.00800           0
     13061 MEMB     113      SAPC     C33      CTL2    -0.180000       12.0110           0
     13062 MEMB     113      SAPC     H3X      HAL2     0.900000E-01   1.00800           0
     13063 MEMB     113      SAPC     H3Y      HAL2     0.900000E-01   1.00800           0
     13064 MEMB     113      SAPC     C34      CTL2    -0.180000       12.0110           0
     13065 MEMB     113      SAPC     H4X      HAL2     0.900000E-01   1.00800           0
     13066 MEMB     113      SAPC     H4Y      HAL2     0.900000E-01   1.00800           0
     13067 MEMB     113      SAPC     C35      CTL2    -0.180000       12.0110           0
     13068 MEMB     113      SAPC     H5X      HAL2     0.900000E-01   1.00800           0
     13069 MEMB     113      SAPC     H5Y      HAL2     0.900000E-01   1.00800           0
     13070 MEMB     113      SAPC     C36      CTL2    -0.180000       12.0110           0
     13071 MEMB     113      SAPC     H6X      HAL2     0.900000E-01   1.00800           0
     13072 MEMB     113      SAPC     H6Y      HAL2     0.900000E-01   1.00800           0
     13073 MEMB     113      SAPC     C37      CTL2    -0.180000       12.0110           0
     13074 MEMB     113      SAPC     H7X      HAL2     0.900000E-01   1.00800           0
     13075 MEMB     113      SAPC     H7Y      HAL2     0.900000E-01   1.00800           0
     13076 MEMB     113      SAPC     C38      CTL2    -0.180000       12.0110           0
     13077 MEMB     113      SAPC     H8X      HAL2     0.900000E-01   1.00800           0
     13078 MEMB     113      SAPC     H8Y      HAL2     0.900000E-01   1.00800           0
     13079 MEMB     113      SAPC     C39      CTL2    -0.180000       12.0110           0
     13080 MEMB     113      SAPC     H9X      HAL2     0.900000E-01   1.00800           0
     13081 MEMB     113      SAPC     H9Y      HAL2     0.900000E-01   1.00800           0
     13082 MEMB     113      SAPC     C310     CTL2    -0.180000       12.0110           0
     13083 MEMB     113      SAPC     H10X     HAL2     0.900000E-01   1.00800           0
     13084 MEMB     113      SAPC     H10Y     HAL2     0.900000E-01   1.00800           0
     13085 MEMB     113      SAPC     C311     CTL2    -0.180000       12.0110           0
     13086 MEMB     113      SAPC     H11X     HAL2     0.900000E-01   1.00800           0
     13087 MEMB     113      SAPC     H11Y     HAL2     0.900000E-01   1.00800           0
     13088 MEMB     113      SAPC     C312     CTL2    -0.180000       12.0110           0
     13089 MEMB     113      SAPC     H12X     HAL2     0.900000E-01   1.00800           0
     13090 MEMB     113      SAPC     H12Y     HAL2     0.900000E-01   1.00800           0
     13091 MEMB     113      SAPC     C313     CTL2    -0.180000       12.0110           0
     13092 MEMB     113      SAPC     H13X     HAL2     0.900000E-01   1.00800           0
     13093 MEMB     113      SAPC     H13Y     HAL2     0.900000E-01   1.00800           0
     13094 MEMB     113      SAPC     C314     CTL2    -0.180000       12.0110           0
     13095 MEMB     113      SAPC     H14X     HAL2     0.900000E-01   1.00800           0
     13096 MEMB     113      SAPC     H14Y     HAL2     0.900000E-01   1.00800           0
     13097 MEMB     113      SAPC     C315     CTL2    -0.180000       12.0110           0
     13098 MEMB     113      SAPC     H15X     HAL2     0.900000E-01   1.00800           0
     13099 MEMB     113      SAPC     H15Y     HAL2     0.900000E-01   1.00800           0
     13100 MEMB     113      SAPC     C316     CTL2    -0.180000       12.0110           0
     13101 MEMB     113      SAPC     H16X     HAL2     0.900000E-01   1.00800           0
     13102 MEMB     113      SAPC     H16Y     HAL2     0.900000E-01   1.00800           0
     13103 MEMB     113      SAPC     C317     CTL2    -0.180000       12.0110           0
     13104 MEMB     113      SAPC     H17X     HAL2     0.900000E-01   1.00800           0
     13105 MEMB     113      SAPC     H17Y     HAL2     0.900000E-01   1.00800           0
     13106 MEMB     113      SAPC     C318     CTL3    -0.270000       12.0110           0
     13107 MEMB     113      SAPC     H18X     HAL3     0.900000E-01   1.00800           0
     13108 MEMB     113      SAPC     H18Y     HAL3     0.900000E-01   1.00800           0
     13109 MEMB     113      SAPC     H18Z     HAL3     0.900000E-01   1.00800           0
     13110 MEMB     114      SLPC     N        NTL     -0.600000       14.0070           0
     13111 MEMB     114      SLPC     C13      CTL5    -0.350000       12.0110           0
     13112 MEMB     114      SLPC     H13A     HL       0.250000       1.00800           0
     13113 MEMB     114      SLPC     H13B     HL       0.250000       1.00800           0
     13114 MEMB     114      SLPC     H13C     HL       0.250000       1.00800           0
     13115 MEMB     114      SLPC     C14      CTL5    -0.350000       12.0110           0
     13116 MEMB     114      SLPC     H14A     HL       0.250000       1.00800           0
     13117 MEMB     114      SLPC     H14B     HL       0.250000       1.00800           0
     13118 MEMB     114      SLPC     H14C     HL       0.250000       1.00800           0
     13119 MEMB     114      SLPC     C15      CTL5    -0.350000       12.0110           0
     13120 MEMB     114      SLPC     H15A     HL       0.250000       1.00800           0
     13121 MEMB     114      SLPC     H15B     HL       0.250000       1.00800           0
     13122 MEMB     114      SLPC     H15C     HL       0.250000       1.00800           0
     13123 MEMB     114      SLPC     C12      CTL2    -0.100000       12.0110           0
     13124 MEMB     114      SLPC     H12A     HL       0.250000       1.00800           0
     13125 MEMB     114      SLPC     H12B     HL       0.250000       1.00800           0
     13126 MEMB     114      SLPC     C11      CTL2    -0.800000E-01   12.0110           0
     13127 MEMB     114      SLPC     H11A     HAL2     0.900000E-01   1.00800           0
     13128 MEMB     114      SLPC     H11B     HAL2     0.900000E-01   1.00800           0
     13129 MEMB     114      SLPC     P        PL        1.50000       30.9740           0
     13130 MEMB     114      SLPC     O13      O2L     -0.780000       15.9994           0
     13131 MEMB     114      SLPC     O14      O2L     -0.780000       15.9994           0
     13132 MEMB     114      SLPC     O12      OSLP    -0.570000       15.9994           0
     13133 MEMB     114      SLPC     O11      OSLP    -0.570000       15.9994           0
     13134 MEMB     114      SLPC     C1       CTL2    -0.800000E-01   12.0110           0
     13135 MEMB     114      SLPC     HA       HAL2     0.900000E-01   1.00800           0
     13136 MEMB     114      SLPC     HB       HAL2     0.900000E-01   1.00800           0
     13137 MEMB     114      SLPC     C2       CTL1     0.170000       12.0110           0
     13138 MEMB     114      SLPC     HS       HAL1     0.900000E-01   1.00800           0
     13139 MEMB     114      SLPC     O21      OSL     -0.490000       15.9994           0
     13140 MEMB     114      SLPC     C21      CL       0.900000       12.0110           0
     13141 MEMB     114      SLPC     O22      OBL     -0.630000       15.9994           0
     13142 MEMB     114      SLPC     C22      CTL2    -0.220000       12.0110           0
     13143 MEMB     114      SLPC     H2R      HAL2     0.900000E-01   1.00800           0
     13144 MEMB     114      SLPC     H2S      HAL2     0.900000E-01   1.00800           0
     13145 MEMB     114      SLPC     C3       CTL2     0.800000E-01   12.0110           0
     13146 MEMB     114      SLPC     HX       HAL2     0.900000E-01   1.00800           0
     13147 MEMB     114      SLPC     HY       HAL2     0.900000E-01   1.00800           0
     13148 MEMB     114      SLPC     O31      OSL     -0.490000       15.9994           0
     13149 MEMB     114      SLPC     C31      CL       0.900000       12.0110           0
     13150 MEMB     114      SLPC     O32      OBL     -0.630000       15.9994           0
     13151 MEMB     114      SLPC     C32      CTL2    -0.220000       12.0110           0
     13152 MEMB     114      SLPC     H2X      HAL2     0.900000E-01   1.00800           0
     13153 MEMB     114      SLPC     H2Y      HAL2     0.900000E-01   1.00800           0
     13154 MEMB     114      SLPC     C23      CTL2    -0.180000       12.0110           0
     13155 MEMB     114      SLPC     H3R      HAL2     0.900000E-01   1.00800           0
     13156 MEMB     114      SLPC     H3S      HAL2     0.900000E-01   1.00800           0
     13157 MEMB     114      SLPC     C24      CTL2    -0.180000       12.0110           0
     13158 MEMB     114      SLPC     H4R      HAL2     0.900000E-01   1.00800           0
     13159 MEMB     114      SLPC     H4S      HAL2     0.900000E-01   1.00800           0
     13160 MEMB     114      SLPC     C25      CTL2    -0.180000       12.0110           0
     13161 MEMB     114      SLPC     H5R      HAL2     0.900000E-01   1.00800           0
     13162 MEMB     114      SLPC     H5S      HAL2     0.900000E-01   1.00800           0
     13163 MEMB     114      SLPC     C26      CTL2    -0.180000       12.0110           0
     13164 MEMB     114      SLPC     H6R      HAL2     0.900000E-01   1.00800           0
     13165 MEMB     114      SLPC     H6S      HAL2     0.900000E-01   1.00800           0
     13166 MEMB     114      SLPC     C27      CTL2    -0.180000       12.0110           0
     13167 MEMB     114      SLPC     H7R      HAL2     0.900000E-01   1.00800           0
     13168 MEMB     114      SLPC     H7S      HAL2     0.900000E-01   1.00800           0
     13169 MEMB     114      SLPC     C28      CTL2    -0.180000       12.0110           0
     13170 MEMB     114      SLPC     H8R      HAL2     0.900000E-01   1.00800           0
     13171 MEMB     114      SLPC     H8S      HAL2     0.900000E-01   1.00800           0
     13172 MEMB     114      SLPC     C29      CEL1    -0.150000       12.0110           0
     13173 MEMB     114      SLPC     H9R      HEL1     0.150000       1.00800           0
     13174 MEMB     114      SLPC     C210     CEL1    -0.150000       12.0110           0
     13175 MEMB     114      SLPC     H10R     HEL1     0.150000       1.00800           0
     13176 MEMB     114      SLPC     C211     CTL2    -0.180000       12.0110           0
     13177 MEMB     114      SLPC     H11R     HAL2     0.900000E-01   1.00800           0
     13178 MEMB     114      SLPC     H11S     HAL2     0.900000E-01   1.00800           0
     13179 MEMB     114      SLPC     C212     CEL1    -0.150000       12.0110           0
     13180 MEMB     114      SLPC     H12R     HEL1     0.150000       1.00800           0
     13181 MEMB     114      SLPC     C213     CEL1    -0.150000       12.0110           0
     13182 MEMB     114      SLPC     H13R     HEL1     0.150000       1.00800           0
     13183 MEMB     114      SLPC     C214     CTL2    -0.180000       12.0110           0
     13184 MEMB     114      SLPC     H14R     HAL2     0.900000E-01   1.00800           0
     13185 MEMB     114      SLPC     H14S     HAL2     0.900000E-01   1.00800           0
     13186 MEMB     114      SLPC     C215     CTL2    -0.180000       12.0110           0
     13187 MEMB     114      SLPC     H15R     HAL2     0.900000E-01   1.00800           0
     13188 MEMB     114      SLPC     H15S     HAL2     0.900000E-01   1.00800           0
     13189 MEMB     114      SLPC     C216     CTL2    -0.180000       12.0110           0
     13190 MEMB     114      SLPC     H16R     HAL2     0.900000E-01   1.00800           0
     13191 MEMB     114      SLPC     H16S     HAL2     0.900000E-01   1.00800           0
     13192 MEMB     114      SLPC     C217     CTL2    -0.180000       12.0110           0
     13193 MEMB     114      SLPC     H17R     HAL2     0.900000E-01   1.00800           0
     13194 MEMB     114      SLPC     H17S     HAL2     0.900000E-01   1.00800           0
     13195 MEMB     114      SLPC     C218     CTL3    -0.270000       12.0110           0
     13196 MEMB     114      SLPC     H18R     HAL3     0.900000E-01   1.00800           0
     13197 MEMB     114      SLPC     H18S     HAL3     0.900000E-01   1.00800           0
     13198 MEMB     114      SLPC     H18T     HAL3     0.900000E-01   1.00800           0
     13199 MEMB     114      SLPC     C33      CTL2    -0.180000       12.0110           0
     13200 MEMB     114      SLPC     H3X      HAL2     0.900000E-01   1.00800           0
     13201 MEMB     114      SLPC     H3Y      HAL2     0.900000E-01   1.00800           0
     13202 MEMB     114      SLPC     C34      CTL2    -0.180000       12.0110           0
     13203 MEMB     114      SLPC     H4X      HAL2     0.900000E-01   1.00800           0
     13204 MEMB     114      SLPC     H4Y      HAL2     0.900000E-01   1.00800           0
     13205 MEMB     114      SLPC     C35      CTL2    -0.180000       12.0110           0
     13206 MEMB     114      SLPC     H5X      HAL2     0.900000E-01   1.00800           0
     13207 MEMB     114      SLPC     H5Y      HAL2     0.900000E-01   1.00800           0
     13208 MEMB     114      SLPC     C36      CTL2    -0.180000       12.0110           0
     13209 MEMB     114      SLPC     H6X      HAL2     0.900000E-01   1.00800           0
     13210 MEMB     114      SLPC     H6Y      HAL2     0.900000E-01   1.00800           0
     13211 MEMB     114      SLPC     C37      CTL2    -0.180000       12.0110           0
     13212 MEMB     114      SLPC     H7X      HAL2     0.900000E-01   1.00800           0
     13213 MEMB     114      SLPC     H7Y      HAL2     0.900000E-01   1.00800           0
     13214 MEMB     114      SLPC     C38      CTL2    -0.180000       12.0110           0
     13215 MEMB     114      SLPC     H8X      HAL2     0.900000E-01   1.00800           0
     13216 MEMB     114      SLPC     H8Y      HAL2     0.900000E-01   1.00800           0
     13217 MEMB     114      SLPC     C39      CTL2    -0.180000       12.0110           0
     13218 MEMB     114      SLPC     H9X      HAL2     0.900000E-01   1.00800           0
     13219 MEMB     114      SLPC     H9Y      HAL2     0.900000E-01   1.00800           0
     13220 MEMB     114      SLPC     C310     CTL2    -0.180000       12.0110           0
     13221 MEMB     114      SLPC     H10X     HAL2     0.900000E-01   1.00800           0
     13222 MEMB     114      SLPC     H10Y     HAL2     0.900000E-01   1.00800           0
     13223 MEMB     114      SLPC     C311     CTL2    -0.180000       12.0110           0
     13224 MEMB     114      SLPC     H11X     HAL2     0.900000E-01   1.00800           0
     13225 MEMB     114      SLPC     H11Y     HAL2     0.900000E-01   1.00800           0
     13226 MEMB     114      SLPC     C312     CTL2    -0.180000       12.0110           0
     13227 MEMB     114      SLPC     H12X     HAL2     0.900000E-01   1.00800           0
     13228 MEMB     114      SLPC     H12Y     HAL2     0.900000E-01   1.00800           0
     13229 MEMB     114      SLPC     C313     CTL2    -0.180000       12.0110           0
     13230 MEMB     114      SLPC     H13X     HAL2     0.900000E-01   1.00800           0
     13231 MEMB     114      SLPC     H13Y     HAL2     0.900000E-01   1.00800           0
     13232 MEMB     114      SLPC     C314     CTL2    -0.180000       12.0110           0
     13233 MEMB     114      SLPC     H14X     HAL2     0.900000E-01   1.00800           0
     13234 MEMB     114      SLPC     H14Y     HAL2     0.900000E-01   1.00800           0
     13235 MEMB     114      SLPC     C315     CTL2    -0.180000       12.0110           0
     13236 MEMB     114      SLPC     H15X     HAL2     0.900000E-01   1.00800           0
     13237 MEMB     114      SLPC     H15Y     HAL2     0.900000E-01   1.00800           0
     13238 MEMB     114      SLPC     C316     CTL2    -0.180000       12.0110           0
     13239 MEMB     114      SLPC     H16X     HAL2     0.900000E-01   1.00800           0
     13240 MEMB     114      SLPC     H16Y     HAL2     0.900000E-01   1.00800           0
     13241 MEMB     114      SLPC     C317     CTL2    -0.180000       12.0110           0
     13242 MEMB     114      SLPC     H17X     HAL2     0.900000E-01   1.00800           0
     13243 MEMB     114      SLPC     H17Y     HAL2     0.900000E-01   1.00800           0
     13244 MEMB     114      SLPC     C318     CTL3    -0.270000       12.0110           0
     13245 MEMB     114      SLPC     H18X     HAL3     0.900000E-01   1.00800           0
     13246 MEMB     114      SLPC     H18Y     HAL3     0.900000E-01   1.00800           0
     13247 MEMB     114      SLPC     H18Z     HAL3     0.900000E-01   1.00800           0
     13248 MEMB     115      SAPS     N        NH3L    -0.300000       14.0070           0
     13249 MEMB     115      SAPS     HN1      HCL      0.330000       1.00800           0
     13250 MEMB     115      SAPS     HN2      HCL      0.330000       1.00800           0
     13251 MEMB     115      SAPS     HN3      HCL      0.330000       1.00800           0
     13252 MEMB     115      SAPS     C12      CTL1     0.210000       12.0110           0
     13253 MEMB     115      SAPS     H12A     HBL      0.100000       1.00800           0
     13254 MEMB     115      SAPS     C13      CCL      0.340000       12.0110           0
     13255 MEMB     115      SAPS     O13A     OCL     -0.670000       15.9994           0
     13256 MEMB     115      SAPS     O13B     OCL     -0.670000       15.9994           0
     13257 MEMB     115      SAPS     C11      CTL2    -0.800000E-01   12.0110           0
     13258 MEMB     115      SAPS     H11A     HAL2     0.900000E-01   1.00800           0
     13259 MEMB     115      SAPS     H11B     HAL2     0.900000E-01   1.00800           0
     13260 MEMB     115      SAPS     P        PL        1.50000       30.9740           0
     13261 MEMB     115      SAPS     O13      O2L     -0.780000       15.9994           0
     13262 MEMB     115      SAPS     O14      O2L     -0.780000       15.9994           0
     13263 MEMB     115      SAPS     O12      OSLP    -0.570000       15.9994           0
     13264 MEMB     115      SAPS     O11      OSLP    -0.570000       15.9994           0
     13265 MEMB     115      SAPS     C1       CTL2    -0.800000E-01   12.0110           0
     13266 MEMB     115      SAPS     HA       HAL2     0.900000E-01   1.00800           0
     13267 MEMB     115      SAPS     HB       HAL2     0.900000E-01   1.00800           0
     13268 MEMB     115      SAPS     C2       CTL1     0.170000       12.0110           0
     13269 MEMB     115      SAPS     HS       HAL1     0.900000E-01   1.00800           0
     13270 MEMB     115      SAPS     O21      OSL     -0.490000       15.9994           0
     13271 MEMB     115      SAPS     C21      CL       0.900000       12.0110           0
     13272 MEMB     115      SAPS     O22      OBL     -0.630000       15.9994           0
     13273 MEMB     115      SAPS     C22      CTL2    -0.220000       12.0110           0
     13274 MEMB     115      SAPS     H2R      HAL2     0.900000E-01   1.00800           0
     13275 MEMB     115      SAPS     H2S      HAL2     0.900000E-01   1.00800           0
     13276 MEMB     115      SAPS     C3       CTL2     0.800000E-01   12.0110           0
     13277 MEMB     115      SAPS     HX       HAL2     0.900000E-01   1.00800           0
     13278 MEMB     115      SAPS     HY       HAL2     0.900000E-01   1.00800           0
     13279 MEMB     115      SAPS     O31      OSL     -0.490000       15.9994           0
     13280 MEMB     115      SAPS     C31      CL       0.900000       12.0110           0
     13281 MEMB     115      SAPS     O32      OBL     -0.630000       15.9994           0
     13282 MEMB     115      SAPS     C32      CTL2    -0.220000       12.0110           0
     13283 MEMB     115      SAPS     H2X      HAL2     0.900000E-01   1.00800           0
     13284 MEMB     115      SAPS     H2Y      HAL2     0.900000E-01   1.00800           0
     13285 MEMB     115      SAPS     C23      CTL2    -0.180000       12.0110           0
     13286 MEMB     115      SAPS     H3R      HAL2     0.900000E-01   1.00800           0
     13287 MEMB     115      SAPS     H3S      HAL2     0.900000E-01   1.00800           0
     13288 MEMB     115      SAPS     C24      CTL2    -0.180000       12.0110           0
     13289 MEMB     115      SAPS     H4R      HAL2     0.900000E-01   1.00800           0
     13290 MEMB     115      SAPS     H4S      HAL2     0.900000E-01   1.00800           0
     13291 MEMB     115      SAPS     C25      CEL1    -0.150000       12.0110           0
     13292 MEMB     115      SAPS     H5R      HEL1     0.150000       1.00800           0
     13293 MEMB     115      SAPS     C26      CEL1    -0.150000       12.0110           0
     13294 MEMB     115      SAPS     H6R      HEL1     0.150000       1.00800           0
     13295 MEMB     115      SAPS     C27      CTL2    -0.180000       12.0110           0
     13296 MEMB     115      SAPS     H7R      HAL2     0.900000E-01   1.00800           0
     13297 MEMB     115      SAPS     H7S      HAL2     0.900000E-01   1.00800           0
     13298 MEMB     115      SAPS     C28      CEL1    -0.150000       12.0110           0
     13299 MEMB     115      SAPS     H8R      HEL1     0.150000       1.00800           0
     13300 MEMB     115      SAPS     C29      CEL1    -0.150000       12.0110           0
     13301 MEMB     115      SAPS     H9R      HEL1     0.150000       1.00800           0
     13302 MEMB     115      SAPS     C210     CTL2    -0.180000       12.0110           0
     13303 MEMB     115      SAPS     H10R     HAL2     0.900000E-01   1.00800           0
     13304 MEMB     115      SAPS     H10S     HAL2     0.900000E-01   1.00800           0
     13305 MEMB     115      SAPS     C211     CEL1    -0.150000       12.0110           0
     13306 MEMB     115      SAPS     H11R     HEL1     0.150000       1.00800           0
     13307 MEMB     115      SAPS     C212     CEL1    -0.150000       12.0110           0
     13308 MEMB     115      SAPS     H12R     HEL1     0.150000       1.00800           0
     13309 MEMB     115      SAPS     C213     CTL2    -0.180000       12.0110           0
     13310 MEMB     115      SAPS     H13R     HAL2     0.900000E-01   1.00800           0
     13311 MEMB     115      SAPS     H13S     HAL2     0.900000E-01   1.00800           0
     13312 MEMB     115      SAPS     C214     CEL1    -0.150000       12.0110           0
     13313 MEMB     115      SAPS     H14R     HEL1     0.150000       1.00800           0
     13314 MEMB     115      SAPS     C215     CEL1    -0.150000       12.0110           0
     13315 MEMB     115      SAPS     H15R     HEL1     0.150000       1.00800           0
     13316 MEMB     115      SAPS     C216     CTL2    -0.180000       12.0110           0
     13317 MEMB     115      SAPS     H16R     HAL2     0.900000E-01   1.00800           0
     13318 MEMB     115      SAPS     H16S     HAL2     0.900000E-01   1.00800           0
     13319 MEMB     115      SAPS     C217     CTL2    -0.180000       12.0110           0
     13320 MEMB     115      SAPS     H17R     HAL2     0.900000E-01   1.00800           0
     13321 MEMB     115      SAPS     H17S     HAL2     0.900000E-01   1.00800           0
     13322 MEMB     115      SAPS     C218     CTL2    -0.180000       12.0110           0
     13323 MEMB     115      SAPS     H18R     HAL2     0.900000E-01   1.00800           0
     13324 MEMB     115      SAPS     H18S     HAL2     0.900000E-01   1.00800           0
     13325 MEMB     115      SAPS     C219     CTL2    -0.180000       12.0110           0
     13326 MEMB     115      SAPS     H19R     HAL2     0.900000E-01   1.00800           0
     13327 MEMB     115      SAPS     H19S     HAL2     0.900000E-01   1.00800           0
     13328 MEMB     115      SAPS     C220     CTL3    -0.270000       12.0110           0
     13329 MEMB     115      SAPS     H20R     HAL3     0.900000E-01   1.00800           0
     13330 MEMB     115      SAPS     H20S     HAL3     0.900000E-01   1.00800           0
     13331 MEMB     115      SAPS     H20T     HAL3     0.900000E-01   1.00800           0
     13332 MEMB     115      SAPS     C33      CTL2    -0.180000       12.0110           0
     13333 MEMB     115      SAPS     H3X      HAL2     0.900000E-01   1.00800           0
     13334 MEMB     115      SAPS     H3Y      HAL2     0.900000E-01   1.00800           0
     13335 MEMB     115      SAPS     C34      CTL2    -0.180000       12.0110           0
     13336 MEMB     115      SAPS     H4X      HAL2     0.900000E-01   1.00800           0
     13337 MEMB     115      SAPS     H4Y      HAL2     0.900000E-01   1.00800           0
     13338 MEMB     115      SAPS     C35      CTL2    -0.180000       12.0110           0
     13339 MEMB     115      SAPS     H5X      HAL2     0.900000E-01   1.00800           0
     13340 MEMB     115      SAPS     H5Y      HAL2     0.900000E-01   1.00800           0
     13341 MEMB     115      SAPS     C36      CTL2    -0.180000       12.0110           0
     13342 MEMB     115      SAPS     H6X      HAL2     0.900000E-01   1.00800           0
     13343 MEMB     115      SAPS     H6Y      HAL2     0.900000E-01   1.00800           0
     13344 MEMB     115      SAPS     C37      CTL2    -0.180000       12.0110           0
     13345 MEMB     115      SAPS     H7X      HAL2     0.900000E-01   1.00800           0
     13346 MEMB     115      SAPS     H7Y      HAL2     0.900000E-01   1.00800           0
     13347 MEMB     115      SAPS     C38      CTL2    -0.180000       12.0110           0
     13348 MEMB     115      SAPS     H8X      HAL2     0.900000E-01   1.00800           0
     13349 MEMB     115      SAPS     H8Y      HAL2     0.900000E-01   1.00800           0
     13350 MEMB     115      SAPS     C39      CTL2    -0.180000       12.0110           0
     13351 MEMB     115      SAPS     H9X      HAL2     0.900000E-01   1.00800           0
     13352 MEMB     115      SAPS     H9Y      HAL2     0.900000E-01   1.00800           0
     13353 MEMB     115      SAPS     C310     CTL2    -0.180000       12.0110           0
     13354 MEMB     115      SAPS     H10X     HAL2     0.900000E-01   1.00800           0
     13355 MEMB     115      SAPS     H10Y     HAL2     0.900000E-01   1.00800           0
     13356 MEMB     115      SAPS     C311     CTL2    -0.180000       12.0110           0
     13357 MEMB     115      SAPS     H11X     HAL2     0.900000E-01   1.00800           0
     13358 MEMB     115      SAPS     H11Y     HAL2     0.900000E-01   1.00800           0
     13359 MEMB     115      SAPS     C312     CTL2    -0.180000       12.0110           0
     13360 MEMB     115      SAPS     H12X     HAL2     0.900000E-01   1.00800           0
     13361 MEMB     115      SAPS     H12Y     HAL2     0.900000E-01   1.00800           0
     13362 MEMB     115      SAPS     C313     CTL2    -0.180000       12.0110           0
     13363 MEMB     115      SAPS     H13X     HAL2     0.900000E-01   1.00800           0
     13364 MEMB     115      SAPS     H13Y     HAL2     0.900000E-01   1.00800           0
     13365 MEMB     115      SAPS     C314     CTL2    -0.180000       12.0110           0
     13366 MEMB     115      SAPS     H14X     HAL2     0.900000E-01   1.00800           0
     13367 MEMB     115      SAPS     H14Y     HAL2     0.900000E-01   1.00800           0
     13368 MEMB     115      SAPS     C315     CTL2    -0.180000       12.0110           0
     13369 MEMB     115      SAPS     H15X     HAL2     0.900000E-01   1.00800           0
     13370 MEMB     115      SAPS     H15Y     HAL2     0.900000E-01   1.00800           0
     13371 MEMB     115      SAPS     C316     CTL2    -0.180000       12.0110           0
     13372 MEMB     115      SAPS     H16X     HAL2     0.900000E-01   1.00800           0
     13373 MEMB     115      SAPS     H16Y     HAL2     0.900000E-01   1.00800           0
     13374 MEMB     115      SAPS     C317     CTL2    -0.180000       12.0110           0
     13375 MEMB     115      SAPS     H17X     HAL2     0.900000E-01   1.00800           0
     13376 MEMB     115      SAPS     H17Y     HAL2     0.900000E-01   1.00800           0
     13377 MEMB     115      SAPS     C318     CTL3    -0.270000       12.0110           0
     13378 MEMB     115      SAPS     H18X     HAL3     0.900000E-01   1.00800           0
     13379 MEMB     115      SAPS     H18Y     HAL3     0.900000E-01   1.00800           0
     13380 MEMB     115      SAPS     H18Z     HAL3     0.900000E-01   1.00800           0
     13381 MEMB     116      SOPE     N        NH3L    -0.300000       14.0070           0
     13382 MEMB     116      SOPE     HN1      HCL      0.330000       1.00800           0
     13383 MEMB     116      SOPE     HN2      HCL      0.330000       1.00800           0
     13384 MEMB     116      SOPE     HN3      HCL      0.330000       1.00800           0
     13385 MEMB     116      SOPE     C12      CTL2     0.130000       12.0110           0
     13386 MEMB     116      SOPE     H12A     HAL2     0.900000E-01   1.00800           0
     13387 MEMB     116      SOPE     H12B     HAL2     0.900000E-01   1.00800           0
     13388 MEMB     116      SOPE     C11      CTL2    -0.800000E-01   12.0110           0
     13389 MEMB     116      SOPE     H11A     HAL2     0.900000E-01   1.00800           0
     13390 MEMB     116      SOPE     H11B     HAL2     0.900000E-01   1.00800           0
     13391 MEMB     116      SOPE     P        PL        1.50000       30.9740           0
     13392 MEMB     116      SOPE     O13      O2L     -0.780000       15.9994           0
     13393 MEMB     116      SOPE     O14      O2L     -0.780000       15.9994           0
     13394 MEMB     116      SOPE     O12      OSLP    -0.570000       15.9994           0
     13395 MEMB     116      SOPE     O11      OSLP    -0.570000       15.9994           0
     13396 MEMB     116      SOPE     C1       CTL2    -0.800000E-01   12.0110           0
     13397 MEMB     116      SOPE     HA       HAL2     0.900000E-01   1.00800           0
     13398 MEMB     116      SOPE     HB       HAL2     0.900000E-01   1.00800           0
     13399 MEMB     116      SOPE     C2       CTL1     0.170000       12.0110           0
     13400 MEMB     116      SOPE     HS       HAL1     0.900000E-01   1.00800           0
     13401 MEMB     116      SOPE     O21      OSL     -0.490000       15.9994           0
     13402 MEMB     116      SOPE     C21      CL       0.900000       12.0110           0
     13403 MEMB     116      SOPE     O22      OBL     -0.630000       15.9994           0
     13404 MEMB     116      SOPE     C22      CTL2    -0.220000       12.0110           0
     13405 MEMB     116      SOPE     H2R      HAL2     0.900000E-01   1.00800           0
     13406 MEMB     116      SOPE     H2S      HAL2     0.900000E-01   1.00800           0
     13407 MEMB     116      SOPE     C3       CTL2     0.800000E-01   12.0110           0
     13408 MEMB     116      SOPE     HX       HAL2     0.900000E-01   1.00800           0
     13409 MEMB     116      SOPE     HY       HAL2     0.900000E-01   1.00800           0
     13410 MEMB     116      SOPE     O31      OSL     -0.490000       15.9994           0
     13411 MEMB     116      SOPE     C31      CL       0.900000       12.0110           0
     13412 MEMB     116      SOPE     O32      OBL     -0.630000       15.9994           0
     13413 MEMB     116      SOPE     C32      CTL2    -0.220000       12.0110           0
     13414 MEMB     116      SOPE     H2X      HAL2     0.900000E-01   1.00800           0
     13415 MEMB     116      SOPE     H2Y      HAL2     0.900000E-01   1.00800           0
     13416 MEMB     116      SOPE     C23      CTL2    -0.180000       12.0110           0
     13417 MEMB     116      SOPE     H3R      HAL2     0.900000E-01   1.00800           0
     13418 MEMB     116      SOPE     H3S      HAL2     0.900000E-01   1.00800           0
     13419 MEMB     116      SOPE     C24      CTL2    -0.180000       12.0110           0
     13420 MEMB     116      SOPE     H4R      HAL2     0.900000E-01   1.00800           0
     13421 MEMB     116      SOPE     H4S      HAL2     0.900000E-01   1.00800           0
     13422 MEMB     116      SOPE     C25      CTL2    -0.180000       12.0110           0
     13423 MEMB     116      SOPE     H5R      HAL2     0.900000E-01   1.00800           0
     13424 MEMB     116      SOPE     H5S      HAL2     0.900000E-01   1.00800           0
     13425 MEMB     116      SOPE     C26      CTL2    -0.180000       12.0110           0
     13426 MEMB     116      SOPE     H6R      HAL2     0.900000E-01   1.00800           0
     13427 MEMB     116      SOPE     H6S      HAL2     0.900000E-01   1.00800           0
     13428 MEMB     116      SOPE     C27      CTL2    -0.180000       12.0110           0
     13429 MEMB     116      SOPE     H7R      HAL2     0.900000E-01   1.00800           0
     13430 MEMB     116      SOPE     H7S      HAL2     0.900000E-01   1.00800           0
     13431 MEMB     116      SOPE     C28      CTL2    -0.180000       12.0110           0
     13432 MEMB     116      SOPE     H8R      HAL2     0.900000E-01   1.00800           0
     13433 MEMB     116      SOPE     H8S      HAL2     0.900000E-01   1.00800           0
     13434 MEMB     116      SOPE     C29      CEL1    -0.150000       12.0110           0
     13435 MEMB     116      SOPE     H91      HEL1     0.150000       1.00800           0
     13436 MEMB     116      SOPE     C210     CEL1    -0.150000       12.0110           0
     13437 MEMB     116      SOPE     H101     HEL1     0.150000       1.00800           0
     13438 MEMB     116      SOPE     C211     CTL2    -0.180000       12.0110           0
     13439 MEMB     116      SOPE     H11R     HAL2     0.900000E-01   1.00800           0
     13440 MEMB     116      SOPE     H11S     HAL2     0.900000E-01   1.00800           0
     13441 MEMB     116      SOPE     C212     CTL2    -0.180000       12.0110           0
     13442 MEMB     116      SOPE     H12R     HAL2     0.900000E-01   1.00800           0
     13443 MEMB     116      SOPE     H12S     HAL2     0.900000E-01   1.00800           0
     13444 MEMB     116      SOPE     C213     CTL2    -0.180000       12.0110           0
     13445 MEMB     116      SOPE     H13R     HAL2     0.900000E-01   1.00800           0
     13446 MEMB     116      SOPE     H13S     HAL2     0.900000E-01   1.00800           0
     13447 MEMB     116      SOPE     C214     CTL2    -0.180000       12.0110           0
     13448 MEMB     116      SOPE     H14R     HAL2     0.900000E-01   1.00800           0
     13449 MEMB     116      SOPE     H14S     HAL2     0.900000E-01   1.00800           0
     13450 MEMB     116      SOPE     C215     CTL2    -0.180000       12.0110           0
     13451 MEMB     116      SOPE     H15R     HAL2     0.900000E-01   1.00800           0
     13452 MEMB     116      SOPE     H15S     HAL2     0.900000E-01   1.00800           0
     13453 MEMB     116      SOPE     C216     CTL2    -0.180000       12.0110           0
     13454 MEMB     116      SOPE     H16R     HAL2     0.900000E-01   1.00800           0
     13455 MEMB     116      SOPE     H16S     HAL2     0.900000E-01   1.00800           0
     13456 MEMB     116      SOPE     C217     CTL2    -0.180000       12.0110           0
     13457 MEMB     116      SOPE     H17R     HAL2     0.900000E-01   1.00800           0
     13458 MEMB     116      SOPE     H17S     HAL2     0.900000E-01   1.00800           0
     13459 MEMB     116      SOPE     C218     CTL3    -0.270000       12.0110           0
     13460 MEMB     116      SOPE     H18R     HAL3     0.900000E-01   1.00800           0
     13461 MEMB     116      SOPE     H18S     HAL3     0.900000E-01   1.00800           0
     13462 MEMB     116      SOPE     H18T     HAL3     0.900000E-01   1.00800           0
     13463 MEMB     116      SOPE     C33      CTL2    -0.180000       12.0110           0
     13464 MEMB     116      SOPE     H3X      HAL2     0.900000E-01   1.00800           0
     13465 MEMB     116      SOPE     H3Y      HAL2     0.900000E-01   1.00800           0
     13466 MEMB     116      SOPE     C34      CTL2    -0.180000       12.0110           0
     13467 MEMB     116      SOPE     H4X      HAL2     0.900000E-01   1.00800           0
     13468 MEMB     116      SOPE     H4Y      HAL2     0.900000E-01   1.00800           0
     13469 MEMB     116      SOPE     C35      CTL2    -0.180000       12.0110           0
     13470 MEMB     116      SOPE     H5X      HAL2     0.900000E-01   1.00800           0
     13471 MEMB     116      SOPE     H5Y      HAL2     0.900000E-01   1.00800           0
     13472 MEMB     116      SOPE     C36      CTL2    -0.180000       12.0110           0
     13473 MEMB     116      SOPE     H6X      HAL2     0.900000E-01   1.00800           0
     13474 MEMB     116      SOPE     H6Y      HAL2     0.900000E-01   1.00800           0
     13475 MEMB     116      SOPE     C37      CTL2    -0.180000       12.0110           0
     13476 MEMB     116      SOPE     H7X      HAL2     0.900000E-01   1.00800           0
     13477 MEMB     116      SOPE     H7Y      HAL2     0.900000E-01   1.00800           0
     13478 MEMB     116      SOPE     C38      CTL2    -0.180000       12.0110           0
     13479 MEMB     116      SOPE     H8X      HAL2     0.900000E-01   1.00800           0
     13480 MEMB     116      SOPE     H8Y      HAL2     0.900000E-01   1.00800           0
     13481 MEMB     116      SOPE     C39      CTL2    -0.180000       12.0110           0
     13482 MEMB     116      SOPE     H9X      HAL2     0.900000E-01   1.00800           0
     13483 MEMB     116      SOPE     H9Y      HAL2     0.900000E-01   1.00800           0
     13484 MEMB     116      SOPE     C310     CTL2    -0.180000       12.0110           0
     13485 MEMB     116      SOPE     H10X     HAL2     0.900000E-01   1.00800           0
     13486 MEMB     116      SOPE     H10Y     HAL2     0.900000E-01   1.00800           0
     13487 MEMB     116      SOPE     C311     CTL2    -0.180000       12.0110           0
     13488 MEMB     116      SOPE     H11X     HAL2     0.900000E-01   1.00800           0
     13489 MEMB     116      SOPE     H11Y     HAL2     0.900000E-01   1.00800           0
     13490 MEMB     116      SOPE     C312     CTL2    -0.180000       12.0110           0
     13491 MEMB     116      SOPE     H12X     HAL2     0.900000E-01   1.00800           0
     13492 MEMB     116      SOPE     H12Y     HAL2     0.900000E-01   1.00800           0
     13493 MEMB     116      SOPE     C313     CTL2    -0.180000       12.0110           0
     13494 MEMB     116      SOPE     H13X     HAL2     0.900000E-01   1.00800           0
     13495 MEMB     116      SOPE     H13Y     HAL2     0.900000E-01   1.00800           0
     13496 MEMB     116      SOPE     C314     CTL2    -0.180000       12.0110           0
     13497 MEMB     116      SOPE     H14X     HAL2     0.900000E-01   1.00800           0
     13498 MEMB     116      SOPE     H14Y     HAL2     0.900000E-01   1.00800           0
     13499 MEMB     116      SOPE     C315     CTL2    -0.180000       12.0110           0
     13500 MEMB     116      SOPE     H15X     HAL2     0.900000E-01   1.00800           0
     13501 MEMB     116      SOPE     H15Y     HAL2     0.900000E-01   1.00800           0
     13502 MEMB     116      SOPE     C316     CTL2    -0.180000       12.0110           0
     13503 MEMB     116      SOPE     H16X     HAL2     0.900000E-01   1.00800           0
     13504 MEMB     116      SOPE     H16Y     HAL2     0.900000E-01   1.00800           0
     13505 MEMB     116      SOPE     C317     CTL2    -0.180000       12.0110           0
     13506 MEMB     116      SOPE     H17X     HAL2     0.900000E-01   1.00800           0
     13507 MEMB     116      SOPE     H17Y     HAL2     0.900000E-01   1.00800           0
     13508 MEMB     116      SOPE     C318     CTL3    -0.270000       12.0110           0
     13509 MEMB     116      SOPE     H18X     HAL3     0.900000E-01   1.00800           0
     13510 MEMB     116      SOPE     H18Y     HAL3     0.900000E-01   1.00800           0
     13511 MEMB     116      SOPE     H18Z     HAL3     0.900000E-01   1.00800           0
     13512 MEMB     117      OSM      N        NTL     -0.600000       14.0070           0
     13513 MEMB     117      OSM      C15      CTL5    -0.350000       12.0110           0
     13514 MEMB     117      OSM      H15A     HL       0.250000       1.00800           0
     13515 MEMB     117      OSM      H15B     HL       0.250000       1.00800           0
     13516 MEMB     117      OSM      H15C     HL       0.250000       1.00800           0
     13517 MEMB     117      OSM      C14      CTL5    -0.350000       12.0110           0
     13518 MEMB     117      OSM      H14A     HL       0.250000       1.00800           0
     13519 MEMB     117      OSM      H14B     HL       0.250000       1.00800           0
     13520 MEMB     117      OSM      H14C     HL       0.250000       1.00800           0
     13521 MEMB     117      OSM      C13      CTL5    -0.350000       12.0110           0
     13522 MEMB     117      OSM      H13A     HL       0.250000       1.00800           0
     13523 MEMB     117      OSM      H13B     HL       0.250000       1.00800           0
     13524 MEMB     117      OSM      H13C     HL       0.250000       1.00800           0
     13525 MEMB     117      OSM      C12      CTL2    -0.100000       12.0110           0
     13526 MEMB     117      OSM      H12A     HL       0.250000       1.00800           0
     13527 MEMB     117      OSM      H12B     HL       0.250000       1.00800           0
     13528 MEMB     117      OSM      C11      CTL2    -0.800000E-01   12.0110           0
     13529 MEMB     117      OSM      H11A     HAL2     0.900000E-01   1.00800           0
     13530 MEMB     117      OSM      H11B     HAL2     0.900000E-01   1.00800           0
     13531 MEMB     117      OSM      P        PL        1.50000       30.9740           0
     13532 MEMB     117      OSM      O13      O2L     -0.780000       15.9994           0
     13533 MEMB     117      OSM      O14      O2L     -0.780000       15.9994           0
     13534 MEMB     117      OSM      O11      OSLP    -0.570000       15.9994           0
     13535 MEMB     117      OSM      O12      OSLP    -0.570000       15.9994           0
     13536 MEMB     117      OSM      C1S      CTL2    -0.800000E-01   12.0110           0
     13537 MEMB     117      OSM      H1S      HAL2     0.900000E-01   1.00800           0
     13538 MEMB     117      OSM      H1T      HAL2     0.900000E-01   1.00800           0
     13539 MEMB     117      OSM      NF       NHL     -0.700000       14.0070           0
     13540 MEMB     117      OSM      HNF      H        0.350000       1.00800           0
     13541 MEMB     117      OSM      C2S      CTL1     0.300000       12.0110           0
     13542 MEMB     117      OSM      H2S      HAL1     0.500000E-01   1.00800           0
     13543 MEMB     117      OSM      C3S      CTO1     0.500000       12.0110           0
     13544 MEMB     117      OSM      H3S      HAL1    -0.110000       1.00800           0
     13545 MEMB     117      OSM      O3       OHL     -0.690000       15.9994           0
     13546 MEMB     117      OSM      HO3      HOL      0.300000       1.00800           0
     13547 MEMB     117      OSM      C4S      CEL3    -0.150000       12.0110           0
     13548 MEMB     117      OSM      H4S      HEL1     0.150000       1.00800           0
     13549 MEMB     117      OSM      C5S      CEL3    -0.150000       12.0110           0
     13550 MEMB     117      OSM      H5S      HEL1     0.150000       1.00800           0
     13551 MEMB     117      OSM      C6S      CTL2    -0.180000       12.0110           0
     13552 MEMB     117      OSM      H6S      HAL2     0.900000E-01   1.00800           0
     13553 MEMB     117      OSM      H6T      HAL2     0.900000E-01   1.00800           0
     13554 MEMB     117      OSM      C7S      CTL2    -0.180000       12.0110           0
     13555 MEMB     117      OSM      H7S      HAL2     0.900000E-01   1.00800           0
     13556 MEMB     117      OSM      H7T      HAL2     0.900000E-01   1.00800           0
     13557 MEMB     117      OSM      C8S      CTL2    -0.180000       12.0110           0
     13558 MEMB     117      OSM      H8S      HAL2     0.900000E-01   1.00800           0
     13559 MEMB     117      OSM      H8T      HAL2     0.900000E-01   1.00800           0
     13560 MEMB     117      OSM      C9S      CTL2    -0.180000       12.0110           0
     13561 MEMB     117      OSM      H9S      HAL2     0.900000E-01   1.00800           0
     13562 MEMB     117      OSM      H9T      HAL2     0.900000E-01   1.00800           0
     13563 MEMB     117      OSM      C10S     CTL2    -0.180000       12.0110           0
     13564 MEMB     117      OSM      H10S     HAL2     0.900000E-01   1.00800           0
     13565 MEMB     117      OSM      H10T     HAL2     0.900000E-01   1.00800           0
     13566 MEMB     117      OSM      C11S     CTL2    -0.180000       12.0110           0
     13567 MEMB     117      OSM      H11S     HAL2     0.900000E-01   1.00800           0
     13568 MEMB     117      OSM      H11T     HAL2     0.900000E-01   1.00800           0
     13569 MEMB     117      OSM      C12S     CTL2    -0.180000       12.0110           0
     13570 MEMB     117      OSM      H12S     HAL2     0.900000E-01   1.00800           0
     13571 MEMB     117      OSM      H12T     HAL2     0.900000E-01   1.00800           0
     13572 MEMB     117      OSM      C13S     CTL2    -0.180000       12.0110           0
     13573 MEMB     117      OSM      H13S     HAL2     0.900000E-01   1.00800           0
     13574 MEMB     117      OSM      H13T     HAL2     0.900000E-01   1.00800           0
     13575 MEMB     117      OSM      C14S     CTL2    -0.180000       12.0110           0
     13576 MEMB     117      OSM      H14S     HAL2     0.900000E-01   1.00800           0
     13577 MEMB     117      OSM      H14T     HAL2     0.900000E-01   1.00800           0
     13578 MEMB     117      OSM      C15S     CTL2    -0.180000       12.0110           0
     13579 MEMB     117      OSM      H15S     HAL2     0.900000E-01   1.00800           0
     13580 MEMB     117      OSM      H15T     HAL2     0.900000E-01   1.00800           0
     13581 MEMB     117      OSM      C16S     CTL2    -0.180000       12.0110           0
     13582 MEMB     117      OSM      H16S     HAL2     0.900000E-01   1.00800           0
     13583 MEMB     117      OSM      H16T     HAL2     0.900000E-01   1.00800           0
     13584 MEMB     117      OSM      C17S     CTL2    -0.180000       12.0110           0
     13585 MEMB     117      OSM      H17S     HAL2     0.900000E-01   1.00800           0
     13586 MEMB     117      OSM      H17T     HAL2     0.900000E-01   1.00800           0
     13587 MEMB     117      OSM      C18S     CTL3    -0.270000       12.0110           0
     13588 MEMB     117      OSM      H18S     HAL3     0.900000E-01   1.00800           0
     13589 MEMB     117      OSM      H18T     HAL3     0.900000E-01   1.00800           0
     13590 MEMB     117      OSM      H18U     HAL3     0.900000E-01   1.00800           0
     13591 MEMB     117      OSM      C1F      C        0.550000       12.0110           0
     13592 MEMB     117      OSM      OF       O       -0.600000       15.9994           0
     13593 MEMB     117      OSM      C2F      CTL2    -0.700000E-01   12.0110           0
     13594 MEMB     117      OSM      H2F      HAL2     0.600000E-01   1.00800           0
     13595 MEMB     117      OSM      H2G      HAL2     0.600000E-01   1.00800           0
     13596 MEMB     117      OSM      C3F      CTL2    -0.180000       12.0110           0
     13597 MEMB     117      OSM      H3F      HAL2     0.900000E-01   1.00800           0
     13598 MEMB     117      OSM      H3G      HAL2     0.900000E-01   1.00800           0
     13599 MEMB     117      OSM      C4F      CTL2    -0.180000       12.0110           0
     13600 MEMB     117      OSM      H4F      HAL2     0.900000E-01   1.00800           0
     13601 MEMB     117      OSM      H4G      HAL2     0.900000E-01   1.00800           0
     13602 MEMB     117      OSM      C5F      CTL2    -0.180000       12.0110           0
     13603 MEMB     117      OSM      H5F      HAL2     0.900000E-01   1.00800           0
     13604 MEMB     117      OSM      H5G      HAL2     0.900000E-01   1.00800           0
     13605 MEMB     117      OSM      C6F      CTL2    -0.180000       12.0110           0
     13606 MEMB     117      OSM      H6F      HAL2     0.900000E-01   1.00800           0
     13607 MEMB     117      OSM      H6G      HAL2     0.900000E-01   1.00800           0
     13608 MEMB     117      OSM      C7F      CTL2    -0.180000       12.0110           0
     13609 MEMB     117      OSM      H7F      HAL2     0.900000E-01   1.00800           0
     13610 MEMB     117      OSM      H7G      HAL2     0.900000E-01   1.00800           0
     13611 MEMB     117      OSM      C8F      CTL2    -0.180000       12.0110           0
     13612 MEMB     117      OSM      H8F      HAL2     0.900000E-01   1.00800           0
     13613 MEMB     117      OSM      H8G      HAL2     0.900000E-01   1.00800           0
     13614 MEMB     117      OSM      C9F      CEL1    -0.150000       12.0110           0
     13615 MEMB     117      OSM      H9F      HEL1     0.150000       1.00800           0
     13616 MEMB     117      OSM      C10F     CEL1    -0.150000       12.0110           0
     13617 MEMB     117      OSM      H10F     HEL1     0.150000       1.00800           0
     13618 MEMB     117      OSM      C11F     CTL2    -0.180000       12.0110           0
     13619 MEMB     117      OSM      H11F     HAL2     0.900000E-01   1.00800           0
     13620 MEMB     117      OSM      H11G     HAL2     0.900000E-01   1.00800           0
     13621 MEMB     117      OSM      C12F     CTL2    -0.180000       12.0110           0
     13622 MEMB     117      OSM      H12F     HAL2     0.900000E-01   1.00800           0
     13623 MEMB     117      OSM      H12G     HAL2     0.900000E-01   1.00800           0
     13624 MEMB     117      OSM      C13F     CTL2    -0.180000       12.0110           0
     13625 MEMB     117      OSM      H13F     HAL2     0.900000E-01   1.00800           0
     13626 MEMB     117      OSM      H13G     HAL2     0.900000E-01   1.00800           0
     13627 MEMB     117      OSM      C14F     CTL2    -0.180000       12.0110           0
     13628 MEMB     117      OSM      H14F     HAL2     0.900000E-01   1.00800           0
     13629 MEMB     117      OSM      H14G     HAL2     0.900000E-01   1.00800           0
     13630 MEMB     117      OSM      C15F     CTL2    -0.180000       12.0110           0
     13631 MEMB     117      OSM      H15F     HAL2     0.900000E-01   1.00800           0
     13632 MEMB     117      OSM      H15G     HAL2     0.900000E-01   1.00800           0
     13633 MEMB     117      OSM      C16F     CTL2    -0.180000       12.0110           0
     13634 MEMB     117      OSM      H16F     HAL2     0.900000E-01   1.00800           0
     13635 MEMB     117      OSM      H16G     HAL2     0.900000E-01   1.00800           0
     13636 MEMB     117      OSM      C17F     CTL2    -0.180000       12.0110           0
     13637 MEMB     117      OSM      H17F     HAL2     0.900000E-01   1.00800           0
     13638 MEMB     117      OSM      H17G     HAL2     0.900000E-01   1.00800           0
     13639 MEMB     117      OSM      C18F     CTL3    -0.270000       12.0110           0
     13640 MEMB     117      OSM      H18F     HAL3     0.900000E-01   1.00800           0
     13641 MEMB     117      OSM      H18G     HAL3     0.900000E-01   1.00800           0
     13642 MEMB     117      OSM      H18H     HAL3     0.900000E-01   1.00800           0
     13643 MEMB     118      OSM      N        NTL     -0.600000       14.0070           0
     13644 MEMB     118      OSM      C15      CTL5    -0.350000       12.0110           0
     13645 MEMB     118      OSM      H15A     HL       0.250000       1.00800           0
     13646 MEMB     118      OSM      H15B     HL       0.250000       1.00800           0
     13647 MEMB     118      OSM      H15C     HL       0.250000       1.00800           0
     13648 MEMB     118      OSM      C14      CTL5    -0.350000       12.0110           0
     13649 MEMB     118      OSM      H14A     HL       0.250000       1.00800           0
     13650 MEMB     118      OSM      H14B     HL       0.250000       1.00800           0
     13651 MEMB     118      OSM      H14C     HL       0.250000       1.00800           0
     13652 MEMB     118      OSM      C13      CTL5    -0.350000       12.0110           0
     13653 MEMB     118      OSM      H13A     HL       0.250000       1.00800           0
     13654 MEMB     118      OSM      H13B     HL       0.250000       1.00800           0
     13655 MEMB     118      OSM      H13C     HL       0.250000       1.00800           0
     13656 MEMB     118      OSM      C12      CTL2    -0.100000       12.0110           0
     13657 MEMB     118      OSM      H12A     HL       0.250000       1.00800           0
     13658 MEMB     118      OSM      H12B     HL       0.250000       1.00800           0
     13659 MEMB     118      OSM      C11      CTL2    -0.800000E-01   12.0110           0
     13660 MEMB     118      OSM      H11A     HAL2     0.900000E-01   1.00800           0
     13661 MEMB     118      OSM      H11B     HAL2     0.900000E-01   1.00800           0
     13662 MEMB     118      OSM      P        PL        1.50000       30.9740           0
     13663 MEMB     118      OSM      O13      O2L     -0.780000       15.9994           0
     13664 MEMB     118      OSM      O14      O2L     -0.780000       15.9994           0
     13665 MEMB     118      OSM      O11      OSLP    -0.570000       15.9994           0
     13666 MEMB     118      OSM      O12      OSLP    -0.570000       15.9994           0
     13667 MEMB     118      OSM      C1S      CTL2    -0.800000E-01   12.0110           0
     13668 MEMB     118      OSM      H1S      HAL2     0.900000E-01   1.00800           0
     13669 MEMB     118      OSM      H1T      HAL2     0.900000E-01   1.00800           0
     13670 MEMB     118      OSM      NF       NHL     -0.700000       14.0070           0
     13671 MEMB     118      OSM      HNF      H        0.350000       1.00800           0
     13672 MEMB     118      OSM      C2S      CTL1     0.300000       12.0110           0
     13673 MEMB     118      OSM      H2S      HAL1     0.500000E-01   1.00800           0
     13674 MEMB     118      OSM      C3S      CTO1     0.500000       12.0110           0
     13675 MEMB     118      OSM      H3S      HAL1    -0.110000       1.00800           0
     13676 MEMB     118      OSM      O3       OHL     -0.690000       15.9994           0
     13677 MEMB     118      OSM      HO3      HOL      0.300000       1.00800           0
     13678 MEMB     118      OSM      C4S      CEL3    -0.150000       12.0110           0
     13679 MEMB     118      OSM      H4S      HEL1     0.150000       1.00800           0
     13680 MEMB     118      OSM      C5S      CEL3    -0.150000       12.0110           0
     13681 MEMB     118      OSM      H5S      HEL1     0.150000       1.00800           0
     13682 MEMB     118      OSM      C6S      CTL2    -0.180000       12.0110           0
     13683 MEMB     118      OSM      H6S      HAL2     0.900000E-01   1.00800           0
     13684 MEMB     118      OSM      H6T      HAL2     0.900000E-01   1.00800           0
     13685 MEMB     118      OSM      C7S      CTL2    -0.180000       12.0110           0
     13686 MEMB     118      OSM      H7S      HAL2     0.900000E-01   1.00800           0
     13687 MEMB     118      OSM      H7T      HAL2     0.900000E-01   1.00800           0
     13688 MEMB     118      OSM      C8S      CTL2    -0.180000       12.0110           0
     13689 MEMB     118      OSM      H8S      HAL2     0.900000E-01   1.00800           0
     13690 MEMB     118      OSM      H8T      HAL2     0.900000E-01   1.00800           0
     13691 MEMB     118      OSM      C9S      CTL2    -0.180000       12.0110           0
     13692 MEMB     118      OSM      H9S      HAL2     0.900000E-01   1.00800           0
     13693 MEMB     118      OSM      H9T      HAL2     0.900000E-01   1.00800           0
     13694 MEMB     118      OSM      C10S     CTL2    -0.180000       12.0110           0
     13695 MEMB     118      OSM      H10S     HAL2     0.900000E-01   1.00800           0
     13696 MEMB     118      OSM      H10T     HAL2     0.900000E-01   1.00800           0
     13697 MEMB     118      OSM      C11S     CTL2    -0.180000       12.0110           0
     13698 MEMB     118      OSM      H11S     HAL2     0.900000E-01   1.00800           0
     13699 MEMB     118      OSM      H11T     HAL2     0.900000E-01   1.00800           0
     13700 MEMB     118      OSM      C12S     CTL2    -0.180000       12.0110           0
     13701 MEMB     118      OSM      H12S     HAL2     0.900000E-01   1.00800           0
     13702 MEMB     118      OSM      H12T     HAL2     0.900000E-01   1.00800           0
     13703 MEMB     118      OSM      C13S     CTL2    -0.180000       12.0110           0
     13704 MEMB     118      OSM      H13S     HAL2     0.900000E-01   1.00800           0
     13705 MEMB     118      OSM      H13T     HAL2     0.900000E-01   1.00800           0
     13706 MEMB     118      OSM      C14S     CTL2    -0.180000       12.0110           0
     13707 MEMB     118      OSM      H14S     HAL2     0.900000E-01   1.00800           0
     13708 MEMB     118      OSM      H14T     HAL2     0.900000E-01   1.00800           0
     13709 MEMB     118      OSM      C15S     CTL2    -0.180000       12.0110           0
     13710 MEMB     118      OSM      H15S     HAL2     0.900000E-01   1.00800           0
     13711 MEMB     118      OSM      H15T     HAL2     0.900000E-01   1.00800           0
     13712 MEMB     118      OSM      C16S     CTL2    -0.180000       12.0110           0
     13713 MEMB     118      OSM      H16S     HAL2     0.900000E-01   1.00800           0
     13714 MEMB     118      OSM      H16T     HAL2     0.900000E-01   1.00800           0
     13715 MEMB     118      OSM      C17S     CTL2    -0.180000       12.0110           0
     13716 MEMB     118      OSM      H17S     HAL2     0.900000E-01   1.00800           0
     13717 MEMB     118      OSM      H17T     HAL2     0.900000E-01   1.00800           0
     13718 MEMB     118      OSM      C18S     CTL3    -0.270000       12.0110           0
     13719 MEMB     118      OSM      H18S     HAL3     0.900000E-01   1.00800           0
     13720 MEMB     118      OSM      H18T     HAL3     0.900000E-01   1.00800           0
     13721 MEMB     118      OSM      H18U     HAL3     0.900000E-01   1.00800           0
     13722 MEMB     118      OSM      C1F      C        0.550000       12.0110           0
     13723 MEMB     118      OSM      OF       O       -0.600000       15.9994           0
     13724 MEMB     118      OSM      C2F      CTL2    -0.700000E-01   12.0110           0
     13725 MEMB     118      OSM      H2F      HAL2     0.600000E-01   1.00800           0
     13726 MEMB     118      OSM      H2G      HAL2     0.600000E-01   1.00800           0
     13727 MEMB     118      OSM      C3F      CTL2    -0.180000       12.0110           0
     13728 MEMB     118      OSM      H3F      HAL2     0.900000E-01   1.00800           0
     13729 MEMB     118      OSM      H3G      HAL2     0.900000E-01   1.00800           0
     13730 MEMB     118      OSM      C4F      CTL2    -0.180000       12.0110           0
     13731 MEMB     118      OSM      H4F      HAL2     0.900000E-01   1.00800           0
     13732 MEMB     118      OSM      H4G      HAL2     0.900000E-01   1.00800           0
     13733 MEMB     118      OSM      C5F      CTL2    -0.180000       12.0110           0
     13734 MEMB     118      OSM      H5F      HAL2     0.900000E-01   1.00800           0
     13735 MEMB     118      OSM      H5G      HAL2     0.900000E-01   1.00800           0
     13736 MEMB     118      OSM      C6F      CTL2    -0.180000       12.0110           0
     13737 MEMB     118      OSM      H6F      HAL2     0.900000E-01   1.00800           0
     13738 MEMB     118      OSM      H6G      HAL2     0.900000E-01   1.00800           0
     13739 MEMB     118      OSM      C7F      CTL2    -0.180000       12.0110           0
     13740 MEMB     118      OSM      H7F      HAL2     0.900000E-01   1.00800           0
     13741 MEMB     118      OSM      H7G      HAL2     0.900000E-01   1.00800           0
     13742 MEMB     118      OSM      C8F      CTL2    -0.180000       12.0110           0
     13743 MEMB     118      OSM      H8F      HAL2     0.900000E-01   1.00800           0
     13744 MEMB     118      OSM      H8G      HAL2     0.900000E-01   1.00800           0
     13745 MEMB     118      OSM      C9F      CEL1    -0.150000       12.0110           0
     13746 MEMB     118      OSM      H9F      HEL1     0.150000       1.00800           0
     13747 MEMB     118      OSM      C10F     CEL1    -0.150000       12.0110           0
     13748 MEMB     118      OSM      H10F     HEL1     0.150000       1.00800           0
     13749 MEMB     118      OSM      C11F     CTL2    -0.180000       12.0110           0
     13750 MEMB     118      OSM      H11F     HAL2     0.900000E-01   1.00800           0
     13751 MEMB     118      OSM      H11G     HAL2     0.900000E-01   1.00800           0
     13752 MEMB     118      OSM      C12F     CTL2    -0.180000       12.0110           0
     13753 MEMB     118      OSM      H12F     HAL2     0.900000E-01   1.00800           0
     13754 MEMB     118      OSM      H12G     HAL2     0.900000E-01   1.00800           0
     13755 MEMB     118      OSM      C13F     CTL2    -0.180000       12.0110           0
     13756 MEMB     118      OSM      H13F     HAL2     0.900000E-01   1.00800           0
     13757 MEMB     118      OSM      H13G     HAL2     0.900000E-01   1.00800           0
     13758 MEMB     118      OSM      C14F     CTL2    -0.180000       12.0110           0
     13759 MEMB     118      OSM      H14F     HAL2     0.900000E-01   1.00800           0
     13760 MEMB     118      OSM      H14G     HAL2     0.900000E-01   1.00800           0
     13761 MEMB     118      OSM      C15F     CTL2    -0.180000       12.0110           0
     13762 MEMB     118      OSM      H15F     HAL2     0.900000E-01   1.00800           0
     13763 MEMB     118      OSM      H15G     HAL2     0.900000E-01   1.00800           0
     13764 MEMB     118      OSM      C16F     CTL2    -0.180000       12.0110           0
     13765 MEMB     118      OSM      H16F     HAL2     0.900000E-01   1.00800           0
     13766 MEMB     118      OSM      H16G     HAL2     0.900000E-01   1.00800           0
     13767 MEMB     118      OSM      C17F     CTL2    -0.180000       12.0110           0
     13768 MEMB     118      OSM      H17F     HAL2     0.900000E-01   1.00800           0
     13769 MEMB     118      OSM      H17G     HAL2     0.900000E-01   1.00800           0
     13770 MEMB     118      OSM      C18F     CTL3    -0.270000       12.0110           0
     13771 MEMB     118      OSM      H18F     HAL3     0.900000E-01   1.00800           0
     13772 MEMB     118      OSM      H18G     HAL3     0.900000E-01   1.00800           0
     13773 MEMB     118      OSM      H18H     HAL3     0.900000E-01   1.00800           0
     13774 MEMB     119      SAPS     N        NH3L    -0.300000       14.0070           0
     13775 MEMB     119      SAPS     HN1      HCL      0.330000       1.00800           0
     13776 MEMB     119      SAPS     HN2      HCL      0.330000       1.00800           0
     13777 MEMB     119      SAPS     HN3      HCL      0.330000       1.00800           0
     13778 MEMB     119      SAPS     C12      CTL1     0.210000       12.0110           0
     13779 MEMB     119      SAPS     H12A     HBL      0.100000       1.00800           0
     13780 MEMB     119      SAPS     C13      CCL      0.340000       12.0110           0
     13781 MEMB     119      SAPS     O13A     OCL     -0.670000       15.9994           0
     13782 MEMB     119      SAPS     O13B     OCL     -0.670000       15.9994           0
     13783 MEMB     119      SAPS     C11      CTL2    -0.800000E-01   12.0110           0
     13784 MEMB     119      SAPS     H11A     HAL2     0.900000E-01   1.00800           0
     13785 MEMB     119      SAPS     H11B     HAL2     0.900000E-01   1.00800           0
     13786 MEMB     119      SAPS     P        PL        1.50000       30.9740           0
     13787 MEMB     119      SAPS     O13      O2L     -0.780000       15.9994           0
     13788 MEMB     119      SAPS     O14      O2L     -0.780000       15.9994           0
     13789 MEMB     119      SAPS     O12      OSLP    -0.570000       15.9994           0
     13790 MEMB     119      SAPS     O11      OSLP    -0.570000       15.9994           0
     13791 MEMB     119      SAPS     C1       CTL2    -0.800000E-01   12.0110           0
     13792 MEMB     119      SAPS     HA       HAL2     0.900000E-01   1.00800           0
     13793 MEMB     119      SAPS     HB       HAL2     0.900000E-01   1.00800           0
     13794 MEMB     119      SAPS     C2       CTL1     0.170000       12.0110           0
     13795 MEMB     119      SAPS     HS       HAL1     0.900000E-01   1.00800           0
     13796 MEMB     119      SAPS     O21      OSL     -0.490000       15.9994           0
     13797 MEMB     119      SAPS     C21      CL       0.900000       12.0110           0
     13798 MEMB     119      SAPS     O22      OBL     -0.630000       15.9994           0
     13799 MEMB     119      SAPS     C22      CTL2    -0.220000       12.0110           0
     13800 MEMB     119      SAPS     H2R      HAL2     0.900000E-01   1.00800           0
     13801 MEMB     119      SAPS     H2S      HAL2     0.900000E-01   1.00800           0
     13802 MEMB     119      SAPS     C3       CTL2     0.800000E-01   12.0110           0
     13803 MEMB     119      SAPS     HX       HAL2     0.900000E-01   1.00800           0
     13804 MEMB     119      SAPS     HY       HAL2     0.900000E-01   1.00800           0
     13805 MEMB     119      SAPS     O31      OSL     -0.490000       15.9994           0
     13806 MEMB     119      SAPS     C31      CL       0.900000       12.0110           0
     13807 MEMB     119      SAPS     O32      OBL     -0.630000       15.9994           0
     13808 MEMB     119      SAPS     C32      CTL2    -0.220000       12.0110           0
     13809 MEMB     119      SAPS     H2X      HAL2     0.900000E-01   1.00800           0
     13810 MEMB     119      SAPS     H2Y      HAL2     0.900000E-01   1.00800           0
     13811 MEMB     119      SAPS     C23      CTL2    -0.180000       12.0110           0
     13812 MEMB     119      SAPS     H3R      HAL2     0.900000E-01   1.00800           0
     13813 MEMB     119      SAPS     H3S      HAL2     0.900000E-01   1.00800           0
     13814 MEMB     119      SAPS     C24      CTL2    -0.180000       12.0110           0
     13815 MEMB     119      SAPS     H4R      HAL2     0.900000E-01   1.00800           0
     13816 MEMB     119      SAPS     H4S      HAL2     0.900000E-01   1.00800           0
     13817 MEMB     119      SAPS     C25      CEL1    -0.150000       12.0110           0
     13818 MEMB     119      SAPS     H5R      HEL1     0.150000       1.00800           0
     13819 MEMB     119      SAPS     C26      CEL1    -0.150000       12.0110           0
     13820 MEMB     119      SAPS     H6R      HEL1     0.150000       1.00800           0
     13821 MEMB     119      SAPS     C27      CTL2    -0.180000       12.0110           0
     13822 MEMB     119      SAPS     H7R      HAL2     0.900000E-01   1.00800           0
     13823 MEMB     119      SAPS     H7S      HAL2     0.900000E-01   1.00800           0
     13824 MEMB     119      SAPS     C28      CEL1    -0.150000       12.0110           0
     13825 MEMB     119      SAPS     H8R      HEL1     0.150000       1.00800           0
     13826 MEMB     119      SAPS     C29      CEL1    -0.150000       12.0110           0
     13827 MEMB     119      SAPS     H9R      HEL1     0.150000       1.00800           0
     13828 MEMB     119      SAPS     C210     CTL2    -0.180000       12.0110           0
     13829 MEMB     119      SAPS     H10R     HAL2     0.900000E-01   1.00800           0
     13830 MEMB     119      SAPS     H10S     HAL2     0.900000E-01   1.00800           0
     13831 MEMB     119      SAPS     C211     CEL1    -0.150000       12.0110           0
     13832 MEMB     119      SAPS     H11R     HEL1     0.150000       1.00800           0
     13833 MEMB     119      SAPS     C212     CEL1    -0.150000       12.0110           0
     13834 MEMB     119      SAPS     H12R     HEL1     0.150000       1.00800           0
     13835 MEMB     119      SAPS     C213     CTL2    -0.180000       12.0110           0
     13836 MEMB     119      SAPS     H13R     HAL2     0.900000E-01   1.00800           0
     13837 MEMB     119      SAPS     H13S     HAL2     0.900000E-01   1.00800           0
     13838 MEMB     119      SAPS     C214     CEL1    -0.150000       12.0110           0
     13839 MEMB     119      SAPS     H14R     HEL1     0.150000       1.00800           0
     13840 MEMB     119      SAPS     C215     CEL1    -0.150000       12.0110           0
     13841 MEMB     119      SAPS     H15R     HEL1     0.150000       1.00800           0
     13842 MEMB     119      SAPS     C216     CTL2    -0.180000       12.0110           0
     13843 MEMB     119      SAPS     H16R     HAL2     0.900000E-01   1.00800           0
     13844 MEMB     119      SAPS     H16S     HAL2     0.900000E-01   1.00800           0
     13845 MEMB     119      SAPS     C217     CTL2    -0.180000       12.0110           0
     13846 MEMB     119      SAPS     H17R     HAL2     0.900000E-01   1.00800           0
     13847 MEMB     119      SAPS     H17S     HAL2     0.900000E-01   1.00800           0
     13848 MEMB     119      SAPS     C218     CTL2    -0.180000       12.0110           0
     13849 MEMB     119      SAPS     H18R     HAL2     0.900000E-01   1.00800           0
     13850 MEMB     119      SAPS     H18S     HAL2     0.900000E-01   1.00800           0
     13851 MEMB     119      SAPS     C219     CTL2    -0.180000       12.0110           0
     13852 MEMB     119      SAPS     H19R     HAL2     0.900000E-01   1.00800           0
     13853 MEMB     119      SAPS     H19S     HAL2     0.900000E-01   1.00800           0
     13854 MEMB     119      SAPS     C220     CTL3    -0.270000       12.0110           0
     13855 MEMB     119      SAPS     H20R     HAL3     0.900000E-01   1.00800           0
     13856 MEMB     119      SAPS     H20S     HAL3     0.900000E-01   1.00800           0
     13857 MEMB     119      SAPS     H20T     HAL3     0.900000E-01   1.00800           0
     13858 MEMB     119      SAPS     C33      CTL2    -0.180000       12.0110           0
     13859 MEMB     119      SAPS     H3X      HAL2     0.900000E-01   1.00800           0
     13860 MEMB     119      SAPS     H3Y      HAL2     0.900000E-01   1.00800           0
     13861 MEMB     119      SAPS     C34      CTL2    -0.180000       12.0110           0
     13862 MEMB     119      SAPS     H4X      HAL2     0.900000E-01   1.00800           0
     13863 MEMB     119      SAPS     H4Y      HAL2     0.900000E-01   1.00800           0
     13864 MEMB     119      SAPS     C35      CTL2    -0.180000       12.0110           0
     13865 MEMB     119      SAPS     H5X      HAL2     0.900000E-01   1.00800           0
     13866 MEMB     119      SAPS     H5Y      HAL2     0.900000E-01   1.00800           0
     13867 MEMB     119      SAPS     C36      CTL2    -0.180000       12.0110           0
     13868 MEMB     119      SAPS     H6X      HAL2     0.900000E-01   1.00800           0
     13869 MEMB     119      SAPS     H6Y      HAL2     0.900000E-01   1.00800           0
     13870 MEMB     119      SAPS     C37      CTL2    -0.180000       12.0110           0
     13871 MEMB     119      SAPS     H7X      HAL2     0.900000E-01   1.00800           0
     13872 MEMB     119      SAPS     H7Y      HAL2     0.900000E-01   1.00800           0
     13873 MEMB     119      SAPS     C38      CTL2    -0.180000       12.0110           0
     13874 MEMB     119      SAPS     H8X      HAL2     0.900000E-01   1.00800           0
     13875 MEMB     119      SAPS     H8Y      HAL2     0.900000E-01   1.00800           0
     13876 MEMB     119      SAPS     C39      CTL2    -0.180000       12.0110           0
     13877 MEMB     119      SAPS     H9X      HAL2     0.900000E-01   1.00800           0
     13878 MEMB     119      SAPS     H9Y      HAL2     0.900000E-01   1.00800           0
     13879 MEMB     119      SAPS     C310     CTL2    -0.180000       12.0110           0
     13880 MEMB     119      SAPS     H10X     HAL2     0.900000E-01   1.00800           0
     13881 MEMB     119      SAPS     H10Y     HAL2     0.900000E-01   1.00800           0
     13882 MEMB     119      SAPS     C311     CTL2    -0.180000       12.0110           0
     13883 MEMB     119      SAPS     H11X     HAL2     0.900000E-01   1.00800           0
     13884 MEMB     119      SAPS     H11Y     HAL2     0.900000E-01   1.00800           0
     13885 MEMB     119      SAPS     C312     CTL2    -0.180000       12.0110           0
     13886 MEMB     119      SAPS     H12X     HAL2     0.900000E-01   1.00800           0
     13887 MEMB     119      SAPS     H12Y     HAL2     0.900000E-01   1.00800           0
     13888 MEMB     119      SAPS     C313     CTL2    -0.180000       12.0110           0
     13889 MEMB     119      SAPS     H13X     HAL2     0.900000E-01   1.00800           0
     13890 MEMB     119      SAPS     H13Y     HAL2     0.900000E-01   1.00800           0
     13891 MEMB     119      SAPS     C314     CTL2    -0.180000       12.0110           0
     13892 MEMB     119      SAPS     H14X     HAL2     0.900000E-01   1.00800           0
     13893 MEMB     119      SAPS     H14Y     HAL2     0.900000E-01   1.00800           0
     13894 MEMB     119      SAPS     C315     CTL2    -0.180000       12.0110           0
     13895 MEMB     119      SAPS     H15X     HAL2     0.900000E-01   1.00800           0
     13896 MEMB     119      SAPS     H15Y     HAL2     0.900000E-01   1.00800           0
     13897 MEMB     119      SAPS     C316     CTL2    -0.180000       12.0110           0
     13898 MEMB     119      SAPS     H16X     HAL2     0.900000E-01   1.00800           0
     13899 MEMB     119      SAPS     H16Y     HAL2     0.900000E-01   1.00800           0
     13900 MEMB     119      SAPS     C317     CTL2    -0.180000       12.0110           0
     13901 MEMB     119      SAPS     H17X     HAL2     0.900000E-01   1.00800           0
     13902 MEMB     119      SAPS     H17Y     HAL2     0.900000E-01   1.00800           0
     13903 MEMB     119      SAPS     C318     CTL3    -0.270000       12.0110           0
     13904 MEMB     119      SAPS     H18X     HAL3     0.900000E-01   1.00800           0
     13905 MEMB     119      SAPS     H18Y     HAL3     0.900000E-01   1.00800           0
     13906 MEMB     119      SAPS     H18Z     HAL3     0.900000E-01   1.00800           0
     13907 MEMB     120      CHL1     C3       CRL1     0.140000       12.0110           0
     13908 MEMB     120      CHL1     H3       HGA1     0.900000E-01   1.00800           0
     13909 MEMB     120      CHL1     O3       OHL     -0.660000       15.9994           0
     13910 MEMB     120      CHL1     H3'      HOL      0.430000       1.00800           0
     13911 MEMB     120      CHL1     C4       CRL2    -0.180000       12.0110           0
     13912 MEMB     120      CHL1     H4A      HGA2     0.900000E-01   1.00800           0
     13913 MEMB     120      CHL1     H4B      HGA2     0.900000E-01   1.00800           0
     13914 MEMB     120      CHL1     C5       CEL1      0.00000       12.0110           0
     13915 MEMB     120      CHL1     C6       CEL1    -0.150000       12.0110           0
     13916 MEMB     120      CHL1     H6       HEL1     0.150000       1.00800           0
     13917 MEMB     120      CHL1     C7       CRL2    -0.180000       12.0110           0
     13918 MEMB     120      CHL1     H7A      HGA2     0.900000E-01   1.00800           0
     13919 MEMB     120      CHL1     H7B      HGA2     0.900000E-01   1.00800           0
     13920 MEMB     120      CHL1     C8       CRL1    -0.900000E-01   12.0110           0
     13921 MEMB     120      CHL1     H8       HGA1     0.900000E-01   1.00800           0
     13922 MEMB     120      CHL1     C14      CRL1    -0.900000E-01   12.0110           0
     13923 MEMB     120      CHL1     H14      HGA1     0.900000E-01   1.00800           0
     13924 MEMB     120      CHL1     C15      CRL2    -0.180000       12.0110           0
     13925 MEMB     120      CHL1     H15A     HGA2     0.900000E-01   1.00800           0
     13926 MEMB     120      CHL1     H15B     HGA2     0.900000E-01   1.00800           0
     13927 MEMB     120      CHL1     C16      CRL2    -0.180000       12.0110           0
     13928 MEMB     120      CHL1     H16A     HGA2     0.900000E-01   1.00800           0
     13929 MEMB     120      CHL1     H16B     HGA2     0.900000E-01   1.00800           0
     13930 MEMB     120      CHL1     C17      CRL1    -0.900000E-01   12.0110           0
     13931 MEMB     120      CHL1     H17      HGA1     0.900000E-01   1.00800           0
     13932 MEMB     120      CHL1     C13      CRL1      0.00000       12.0110           0
     13933 MEMB     120      CHL1     C18      CTL3    -0.270000       12.0110           0
     13934 MEMB     120      CHL1     H18A     HAL3     0.900000E-01   1.00800           0
     13935 MEMB     120      CHL1     H18B     HAL3     0.900000E-01   1.00800           0
     13936 MEMB     120      CHL1     H18C     HAL3     0.900000E-01   1.00800           0
     13937 MEMB     120      CHL1     C12      CRL2    -0.180000       12.0110           0
     13938 MEMB     120      CHL1     H12A     HGA2     0.900000E-01   1.00800           0
     13939 MEMB     120      CHL1     H12B     HGA2     0.900000E-01   1.00800           0
     13940 MEMB     120      CHL1     C11      CRL2    -0.180000       12.0110           0
     13941 MEMB     120      CHL1     H11A     HGA2     0.900000E-01   1.00800           0
     13942 MEMB     120      CHL1     H11B     HGA2     0.900000E-01   1.00800           0
     13943 MEMB     120      CHL1     C9       CRL1    -0.900000E-01   12.0110           0
     13944 MEMB     120      CHL1     H9       HGA1     0.900000E-01   1.00800           0
     13945 MEMB     120      CHL1     C10      CRL1      0.00000       12.0110           0
     13946 MEMB     120      CHL1     C19      CTL3    -0.270000       12.0110           0
     13947 MEMB     120      CHL1     H19A     HAL3     0.900000E-01   1.00800           0
     13948 MEMB     120      CHL1     H19B     HAL3     0.900000E-01   1.00800           0
     13949 MEMB     120      CHL1     H19C     HAL3     0.900000E-01   1.00800           0
     13950 MEMB     120      CHL1     C1       CRL2    -0.180000       12.0110           0
     13951 MEMB     120      CHL1     H1A      HGA2     0.900000E-01   1.00800           0
     13952 MEMB     120      CHL1     H1B      HGA2     0.900000E-01   1.00800           0
     13953 MEMB     120      CHL1     C2       CRL2    -0.180000       12.0110           0
     13954 MEMB     120      CHL1     H2A      HGA2     0.900000E-01   1.00800           0
     13955 MEMB     120      CHL1     H2B      HGA2     0.900000E-01   1.00800           0
     13956 MEMB     120      CHL1     C20      CTL1    -0.900000E-01   12.0110           0
     13957 MEMB     120      CHL1     H20      HAL1     0.900000E-01   1.00800           0
     13958 MEMB     120      CHL1     C21      CTL3    -0.270000       12.0110           0
     13959 MEMB     120      CHL1     H21A     HAL3     0.900000E-01   1.00800           0
     13960 MEMB     120      CHL1     H21B     HAL3     0.900000E-01   1.00800           0
     13961 MEMB     120      CHL1     H21C     HAL3     0.900000E-01   1.00800           0
     13962 MEMB     120      CHL1     C22      CTL2    -0.180000       12.0110           0
     13963 MEMB     120      CHL1     H22A     HAL2     0.900000E-01   1.00800           0
     13964 MEMB     120      CHL1     H22B     HAL2     0.900000E-01   1.00800           0
     13965 MEMB     120      CHL1     C23      CTL2    -0.180000       12.0110           0
     13966 MEMB     120      CHL1     H23A     HAL2     0.900000E-01   1.00800           0
     13967 MEMB     120      CHL1     H23B     HAL2     0.900000E-01   1.00800           0
     13968 MEMB     120      CHL1     C24      CTL2    -0.180000       12.0110           0
     13969 MEMB     120      CHL1     H24A     HAL2     0.900000E-01   1.00800           0
     13970 MEMB     120      CHL1     H24B     HAL2     0.900000E-01   1.00800           0
     13971 MEMB     120      CHL1     C25      CTL1    -0.900000E-01   12.0110           0
     13972 MEMB     120      CHL1     H25      HAL1     0.900000E-01   1.00800           0
     13973 MEMB     120      CHL1     C26      CTL3    -0.270000       12.0110           0
     13974 MEMB     120      CHL1     H26A     HAL3     0.900000E-01   1.00800           0
     13975 MEMB     120      CHL1     H26B     HAL3     0.900000E-01   1.00800           0
     13976 MEMB     120      CHL1     H26C     HAL3     0.900000E-01   1.00800           0
     13977 MEMB     120      CHL1     C27      CTL3    -0.270000       12.0110           0
     13978 MEMB     120      CHL1     H27A     HAL3     0.900000E-01   1.00800           0
     13979 MEMB     120      CHL1     H27B     HAL3     0.900000E-01   1.00800           0
     13980 MEMB     120      CHL1     H27C     HAL3     0.900000E-01   1.00800           0
     13981 MEMB     121      OSM      N        NTL     -0.600000       14.0070           0
     13982 MEMB     121      OSM      C15      CTL5    -0.350000       12.0110           0
     13983 MEMB     121      OSM      H15A     HL       0.250000       1.00800           0
     13984 MEMB     121      OSM      H15B     HL       0.250000       1.00800           0
     13985 MEMB     121      OSM      H15C     HL       0.250000       1.00800           0
     13986 MEMB     121      OSM      C14      CTL5    -0.350000       12.0110           0
     13987 MEMB     121      OSM      H14A     HL       0.250000       1.00800           0
     13988 MEMB     121      OSM      H14B     HL       0.250000       1.00800           0
     13989 MEMB     121      OSM      H14C     HL       0.250000       1.00800           0
     13990 MEMB     121      OSM      C13      CTL5    -0.350000       12.0110           0
     13991 MEMB     121      OSM      H13A     HL       0.250000       1.00800           0
     13992 MEMB     121      OSM      H13B     HL       0.250000       1.00800           0
     13993 MEMB     121      OSM      H13C     HL       0.250000       1.00800           0
     13994 MEMB     121      OSM      C12      CTL2    -0.100000       12.0110           0
     13995 MEMB     121      OSM      H12A     HL       0.250000       1.00800           0
     13996 MEMB     121      OSM      H12B     HL       0.250000       1.00800           0
     13997 MEMB     121      OSM      C11      CTL2    -0.800000E-01   12.0110           0
     13998 MEMB     121      OSM      H11A     HAL2     0.900000E-01   1.00800           0
     13999 MEMB     121      OSM      H11B     HAL2     0.900000E-01   1.00800           0
     14000 MEMB     121      OSM      P        PL        1.50000       30.9740           0
     14001 MEMB     121      OSM      O13      O2L     -0.780000       15.9994           0
     14002 MEMB     121      OSM      O14      O2L     -0.780000       15.9994           0
     14003 MEMB     121      OSM      O11      OSLP    -0.570000       15.9994           0
     14004 MEMB     121      OSM      O12      OSLP    -0.570000       15.9994           0
     14005 MEMB     121      OSM      C1S      CTL2    -0.800000E-01   12.0110           0
     14006 MEMB     121      OSM      H1S      HAL2     0.900000E-01   1.00800           0
     14007 MEMB     121      OSM      H1T      HAL2     0.900000E-01   1.00800           0
     14008 MEMB     121      OSM      NF       NHL     -0.700000       14.0070           0
     14009 MEMB     121      OSM      HNF      H        0.350000       1.00800           0
     14010 MEMB     121      OSM      C2S      CTL1     0.300000       12.0110           0
     14011 MEMB     121      OSM      H2S      HAL1     0.500000E-01   1.00800           0
     14012 MEMB     121      OSM      C3S      CTO1     0.500000       12.0110           0
     14013 MEMB     121      OSM      H3S      HAL1    -0.110000       1.00800           0
     14014 MEMB     121      OSM      O3       OHL     -0.690000       15.9994           0
     14015 MEMB     121      OSM      HO3      HOL      0.300000       1.00800           0
     14016 MEMB     121      OSM      C4S      CEL3    -0.150000       12.0110           0
     14017 MEMB     121      OSM      H4S      HEL1     0.150000       1.00800           0
     14018 MEMB     121      OSM      C5S      CEL3    -0.150000       12.0110           0
     14019 MEMB     121      OSM      H5S      HEL1     0.150000       1.00800           0
     14020 MEMB     121      OSM      C6S      CTL2    -0.180000       12.0110           0
     14021 MEMB     121      OSM      H6S      HAL2     0.900000E-01   1.00800           0
     14022 MEMB     121      OSM      H6T      HAL2     0.900000E-01   1.00800           0
     14023 MEMB     121      OSM      C7S      CTL2    -0.180000       12.0110           0
     14024 MEMB     121      OSM      H7S      HAL2     0.900000E-01   1.00800           0
     14025 MEMB     121      OSM      H7T      HAL2     0.900000E-01   1.00800           0
     14026 MEMB     121      OSM      C8S      CTL2    -0.180000       12.0110           0
     14027 MEMB     121      OSM      H8S      HAL2     0.900000E-01   1.00800           0
     14028 MEMB     121      OSM      H8T      HAL2     0.900000E-01   1.00800           0
     14029 MEMB     121      OSM      C9S      CTL2    -0.180000       12.0110           0
     14030 MEMB     121      OSM      H9S      HAL2     0.900000E-01   1.00800           0
     14031 MEMB     121      OSM      H9T      HAL2     0.900000E-01   1.00800           0
     14032 MEMB     121      OSM      C10S     CTL2    -0.180000       12.0110           0
     14033 MEMB     121      OSM      H10S     HAL2     0.900000E-01   1.00800           0
     14034 MEMB     121      OSM      H10T     HAL2     0.900000E-01   1.00800           0
     14035 MEMB     121      OSM      C11S     CTL2    -0.180000       12.0110           0
     14036 MEMB     121      OSM      H11S     HAL2     0.900000E-01   1.00800           0
     14037 MEMB     121      OSM      H11T     HAL2     0.900000E-01   1.00800           0
     14038 MEMB     121      OSM      C12S     CTL2    -0.180000       12.0110           0
     14039 MEMB     121      OSM      H12S     HAL2     0.900000E-01   1.00800           0
     14040 MEMB     121      OSM      H12T     HAL2     0.900000E-01   1.00800           0
     14041 MEMB     121      OSM      C13S     CTL2    -0.180000       12.0110           0
     14042 MEMB     121      OSM      H13S     HAL2     0.900000E-01   1.00800           0
     14043 MEMB     121      OSM      H13T     HAL2     0.900000E-01   1.00800           0
     14044 MEMB     121      OSM      C14S     CTL2    -0.180000       12.0110           0
     14045 MEMB     121      OSM      H14S     HAL2     0.900000E-01   1.00800           0
     14046 MEMB     121      OSM      H14T     HAL2     0.900000E-01   1.00800           0
     14047 MEMB     121      OSM      C15S     CTL2    -0.180000       12.0110           0
     14048 MEMB     121      OSM      H15S     HAL2     0.900000E-01   1.00800           0
     14049 MEMB     121      OSM      H15T     HAL2     0.900000E-01   1.00800           0
     14050 MEMB     121      OSM      C16S     CTL2    -0.180000       12.0110           0
     14051 MEMB     121      OSM      H16S     HAL2     0.900000E-01   1.00800           0
     14052 MEMB     121      OSM      H16T     HAL2     0.900000E-01   1.00800           0
     14053 MEMB     121      OSM      C17S     CTL2    -0.180000       12.0110           0
     14054 MEMB     121      OSM      H17S     HAL2     0.900000E-01   1.00800           0
     14055 MEMB     121      OSM      H17T     HAL2     0.900000E-01   1.00800           0
     14056 MEMB     121      OSM      C18S     CTL3    -0.270000       12.0110           0
     14057 MEMB     121      OSM      H18S     HAL3     0.900000E-01   1.00800           0
     14058 MEMB     121      OSM      H18T     HAL3     0.900000E-01   1.00800           0
     14059 MEMB     121      OSM      H18U     HAL3     0.900000E-01   1.00800           0
     14060 MEMB     121      OSM      C1F      C        0.550000       12.0110           0
     14061 MEMB     121      OSM      OF       O       -0.600000       15.9994           0
     14062 MEMB     121      OSM      C2F      CTL2    -0.700000E-01   12.0110           0
     14063 MEMB     121      OSM      H2F      HAL2     0.600000E-01   1.00800           0
     14064 MEMB     121      OSM      H2G      HAL2     0.600000E-01   1.00800           0
     14065 MEMB     121      OSM      C3F      CTL2    -0.180000       12.0110           0
     14066 MEMB     121      OSM      H3F      HAL2     0.900000E-01   1.00800           0
     14067 MEMB     121      OSM      H3G      HAL2     0.900000E-01   1.00800           0
     14068 MEMB     121      OSM      C4F      CTL2    -0.180000       12.0110           0
     14069 MEMB     121      OSM      H4F      HAL2     0.900000E-01   1.00800           0
     14070 MEMB     121      OSM      H4G      HAL2     0.900000E-01   1.00800           0
     14071 MEMB     121      OSM      C5F      CTL2    -0.180000       12.0110           0
     14072 MEMB     121      OSM      H5F      HAL2     0.900000E-01   1.00800           0
     14073 MEMB     121      OSM      H5G      HAL2     0.900000E-01   1.00800           0
     14074 MEMB     121      OSM      C6F      CTL2    -0.180000       12.0110           0
     14075 MEMB     121      OSM      H6F      HAL2     0.900000E-01   1.00800           0
     14076 MEMB     121      OSM      H6G      HAL2     0.900000E-01   1.00800           0
     14077 MEMB     121      OSM      C7F      CTL2    -0.180000       12.0110           0
     14078 MEMB     121      OSM      H7F      HAL2     0.900000E-01   1.00800           0
     14079 MEMB     121      OSM      H7G      HAL2     0.900000E-01   1.00800           0
     14080 MEMB     121      OSM      C8F      CTL2    -0.180000       12.0110           0
     14081 MEMB     121      OSM      H8F      HAL2     0.900000E-01   1.00800           0
     14082 MEMB     121      OSM      H8G      HAL2     0.900000E-01   1.00800           0
     14083 MEMB     121      OSM      C9F      CEL1    -0.150000       12.0110           0
     14084 MEMB     121      OSM      H9F      HEL1     0.150000       1.00800           0
     14085 MEMB     121      OSM      C10F     CEL1    -0.150000       12.0110           0
     14086 MEMB     121      OSM      H10F     HEL1     0.150000       1.00800           0
     14087 MEMB     121      OSM      C11F     CTL2    -0.180000       12.0110           0
     14088 MEMB     121      OSM      H11F     HAL2     0.900000E-01   1.00800           0
     14089 MEMB     121      OSM      H11G     HAL2     0.900000E-01   1.00800           0
     14090 MEMB     121      OSM      C12F     CTL2    -0.180000       12.0110           0
     14091 MEMB     121      OSM      H12F     HAL2     0.900000E-01   1.00800           0
     14092 MEMB     121      OSM      H12G     HAL2     0.900000E-01   1.00800           0
     14093 MEMB     121      OSM      C13F     CTL2    -0.180000       12.0110           0
     14094 MEMB     121      OSM      H13F     HAL2     0.900000E-01   1.00800           0
     14095 MEMB     121      OSM      H13G     HAL2     0.900000E-01   1.00800           0
     14096 MEMB     121      OSM      C14F     CTL2    -0.180000       12.0110           0
     14097 MEMB     121      OSM      H14F     HAL2     0.900000E-01   1.00800           0
     14098 MEMB     121      OSM      H14G     HAL2     0.900000E-01   1.00800           0
     14099 MEMB     121      OSM      C15F     CTL2    -0.180000       12.0110           0
     14100 MEMB     121      OSM      H15F     HAL2     0.900000E-01   1.00800           0
     14101 MEMB     121      OSM      H15G     HAL2     0.900000E-01   1.00800           0
     14102 MEMB     121      OSM      C16F     CTL2    -0.180000       12.0110           0
     14103 MEMB     121      OSM      H16F     HAL2     0.900000E-01   1.00800           0
     14104 MEMB     121      OSM      H16G     HAL2     0.900000E-01   1.00800           0
     14105 MEMB     121      OSM      C17F     CTL2    -0.180000       12.0110           0
     14106 MEMB     121      OSM      H17F     HAL2     0.900000E-01   1.00800           0
     14107 MEMB     121      OSM      H17G     HAL2     0.900000E-01   1.00800           0
     14108 MEMB     121      OSM      C18F     CTL3    -0.270000       12.0110           0
     14109 MEMB     121      OSM      H18F     HAL3     0.900000E-01   1.00800           0
     14110 MEMB     121      OSM      H18G     HAL3     0.900000E-01   1.00800           0
     14111 MEMB     121      OSM      H18H     HAL3     0.900000E-01   1.00800           0
     14112 MEMB     122      OSM      N        NTL     -0.600000       14.0070           0
     14113 MEMB     122      OSM      C15      CTL5    -0.350000       12.0110           0
     14114 MEMB     122      OSM      H15A     HL       0.250000       1.00800           0
     14115 MEMB     122      OSM      H15B     HL       0.250000       1.00800           0
     14116 MEMB     122      OSM      H15C     HL       0.250000       1.00800           0
     14117 MEMB     122      OSM      C14      CTL5    -0.350000       12.0110           0
     14118 MEMB     122      OSM      H14A     HL       0.250000       1.00800           0
     14119 MEMB     122      OSM      H14B     HL       0.250000       1.00800           0
     14120 MEMB     122      OSM      H14C     HL       0.250000       1.00800           0
     14121 MEMB     122      OSM      C13      CTL5    -0.350000       12.0110           0
     14122 MEMB     122      OSM      H13A     HL       0.250000       1.00800           0
     14123 MEMB     122      OSM      H13B     HL       0.250000       1.00800           0
     14124 MEMB     122      OSM      H13C     HL       0.250000       1.00800           0
     14125 MEMB     122      OSM      C12      CTL2    -0.100000       12.0110           0
     14126 MEMB     122      OSM      H12A     HL       0.250000       1.00800           0
     14127 MEMB     122      OSM      H12B     HL       0.250000       1.00800           0
     14128 MEMB     122      OSM      C11      CTL2    -0.800000E-01   12.0110           0
     14129 MEMB     122      OSM      H11A     HAL2     0.900000E-01   1.00800           0
     14130 MEMB     122      OSM      H11B     HAL2     0.900000E-01   1.00800           0
     14131 MEMB     122      OSM      P        PL        1.50000       30.9740           0
     14132 MEMB     122      OSM      O13      O2L     -0.780000       15.9994           0
     14133 MEMB     122      OSM      O14      O2L     -0.780000       15.9994           0
     14134 MEMB     122      OSM      O11      OSLP    -0.570000       15.9994           0
     14135 MEMB     122      OSM      O12      OSLP    -0.570000       15.9994           0
     14136 MEMB     122      OSM      C1S      CTL2    -0.800000E-01   12.0110           0
     14137 MEMB     122      OSM      H1S      HAL2     0.900000E-01   1.00800           0
     14138 MEMB     122      OSM      H1T      HAL2     0.900000E-01   1.00800           0
     14139 MEMB     122      OSM      NF       NHL     -0.700000       14.0070           0
     14140 MEMB     122      OSM      HNF      H        0.350000       1.00800           0
     14141 MEMB     122      OSM      C2S      CTL1     0.300000       12.0110           0
     14142 MEMB     122      OSM      H2S      HAL1     0.500000E-01   1.00800           0
     14143 MEMB     122      OSM      C3S      CTO1     0.500000       12.0110           0
     14144 MEMB     122      OSM      H3S      HAL1    -0.110000       1.00800           0
     14145 MEMB     122      OSM      O3       OHL     -0.690000       15.9994           0
     14146 MEMB     122      OSM      HO3      HOL      0.300000       1.00800           0
     14147 MEMB     122      OSM      C4S      CEL3    -0.150000       12.0110           0
     14148 MEMB     122      OSM      H4S      HEL1     0.150000       1.00800           0
     14149 MEMB     122      OSM      C5S      CEL3    -0.150000       12.0110           0
     14150 MEMB     122      OSM      H5S      HEL1     0.150000       1.00800           0
     14151 MEMB     122      OSM      C6S      CTL2    -0.180000       12.0110           0
     14152 MEMB     122      OSM      H6S      HAL2     0.900000E-01   1.00800           0
     14153 MEMB     122      OSM      H6T      HAL2     0.900000E-01   1.00800           0
     14154 MEMB     122      OSM      C7S      CTL2    -0.180000       12.0110           0
     14155 MEMB     122      OSM      H7S      HAL2     0.900000E-01   1.00800           0
     14156 MEMB     122      OSM      H7T      HAL2     0.900000E-01   1.00800           0
     14157 MEMB     122      OSM      C8S      CTL2    -0.180000       12.0110           0
     14158 MEMB     122      OSM      H8S      HAL2     0.900000E-01   1.00800           0
     14159 MEMB     122      OSM      H8T      HAL2     0.900000E-01   1.00800           0
     14160 MEMB     122      OSM      C9S      CTL2    -0.180000       12.0110           0
     14161 MEMB     122      OSM      H9S      HAL2     0.900000E-01   1.00800           0
     14162 MEMB     122      OSM      H9T      HAL2     0.900000E-01   1.00800           0
     14163 MEMB     122      OSM      C10S     CTL2    -0.180000       12.0110           0
     14164 MEMB     122      OSM      H10S     HAL2     0.900000E-01   1.00800           0
     14165 MEMB     122      OSM      H10T     HAL2     0.900000E-01   1.00800           0
     14166 MEMB     122      OSM      C11S     CTL2    -0.180000       12.0110           0
     14167 MEMB     122      OSM      H11S     HAL2     0.900000E-01   1.00800           0
     14168 MEMB     122      OSM      H11T     HAL2     0.900000E-01   1.00800           0
     14169 MEMB     122      OSM      C12S     CTL2    -0.180000       12.0110           0
     14170 MEMB     122      OSM      H12S     HAL2     0.900000E-01   1.00800           0
     14171 MEMB     122      OSM      H12T     HAL2     0.900000E-01   1.00800           0
     14172 MEMB     122      OSM      C13S     CTL2    -0.180000       12.0110           0
     14173 MEMB     122      OSM      H13S     HAL2     0.900000E-01   1.00800           0
     14174 MEMB     122      OSM      H13T     HAL2     0.900000E-01   1.00800           0
     14175 MEMB     122      OSM      C14S     CTL2    -0.180000       12.0110           0
     14176 MEMB     122      OSM      H14S     HAL2     0.900000E-01   1.00800           0
     14177 MEMB     122      OSM      H14T     HAL2     0.900000E-01   1.00800           0
     14178 MEMB     122      OSM      C15S     CTL2    -0.180000       12.0110           0
     14179 MEMB     122      OSM      H15S     HAL2     0.900000E-01   1.00800           0
     14180 MEMB     122      OSM      H15T     HAL2     0.900000E-01   1.00800           0
     14181 MEMB     122      OSM      C16S     CTL2    -0.180000       12.0110           0
     14182 MEMB     122      OSM      H16S     HAL2     0.900000E-01   1.00800           0
     14183 MEMB     122      OSM      H16T     HAL2     0.900000E-01   1.00800           0
     14184 MEMB     122      OSM      C17S     CTL2    -0.180000       12.0110           0
     14185 MEMB     122      OSM      H17S     HAL2     0.900000E-01   1.00800           0
     14186 MEMB     122      OSM      H17T     HAL2     0.900000E-01   1.00800           0
     14187 MEMB     122      OSM      C18S     CTL3    -0.270000       12.0110           0
     14188 MEMB     122      OSM      H18S     HAL3     0.900000E-01   1.00800           0
     14189 MEMB     122      OSM      H18T     HAL3     0.900000E-01   1.00800           0
     14190 MEMB     122      OSM      H18U     HAL3     0.900000E-01   1.00800           0
     14191 MEMB     122      OSM      C1F      C        0.550000       12.0110           0
     14192 MEMB     122      OSM      OF       O       -0.600000       15.9994           0
     14193 MEMB     122      OSM      C2F      CTL2    -0.700000E-01   12.0110           0
     14194 MEMB     122      OSM      H2F      HAL2     0.600000E-01   1.00800           0
     14195 MEMB     122      OSM      H2G      HAL2     0.600000E-01   1.00800           0
     14196 MEMB     122      OSM      C3F      CTL2    -0.180000       12.0110           0
     14197 MEMB     122      OSM      H3F      HAL2     0.900000E-01   1.00800           0
     14198 MEMB     122      OSM      H3G      HAL2     0.900000E-01   1.00800           0
     14199 MEMB     122      OSM      C4F      CTL2    -0.180000       12.0110           0
     14200 MEMB     122      OSM      H4F      HAL2     0.900000E-01   1.00800           0
     14201 MEMB     122      OSM      H4G      HAL2     0.900000E-01   1.00800           0
     14202 MEMB     122      OSM      C5F      CTL2    -0.180000       12.0110           0
     14203 MEMB     122      OSM      H5F      HAL2     0.900000E-01   1.00800           0
     14204 MEMB     122      OSM      H5G      HAL2     0.900000E-01   1.00800           0
     14205 MEMB     122      OSM      C6F      CTL2    -0.180000       12.0110           0
     14206 MEMB     122      OSM      H6F      HAL2     0.900000E-01   1.00800           0
     14207 MEMB     122      OSM      H6G      HAL2     0.900000E-01   1.00800           0
     14208 MEMB     122      OSM      C7F      CTL2    -0.180000       12.0110           0
     14209 MEMB     122      OSM      H7F      HAL2     0.900000E-01   1.00800           0
     14210 MEMB     122      OSM      H7G      HAL2     0.900000E-01   1.00800           0
     14211 MEMB     122      OSM      C8F      CTL2    -0.180000       12.0110           0
     14212 MEMB     122      OSM      H8F      HAL2     0.900000E-01   1.00800           0
     14213 MEMB     122      OSM      H8G      HAL2     0.900000E-01   1.00800           0
     14214 MEMB     122      OSM      C9F      CEL1    -0.150000       12.0110           0
     14215 MEMB     122      OSM      H9F      HEL1     0.150000       1.00800           0
     14216 MEMB     122      OSM      C10F     CEL1    -0.150000       12.0110           0
     14217 MEMB     122      OSM      H10F     HEL1     0.150000       1.00800           0
     14218 MEMB     122      OSM      C11F     CTL2    -0.180000       12.0110           0
     14219 MEMB     122      OSM      H11F     HAL2     0.900000E-01   1.00800           0
     14220 MEMB     122      OSM      H11G     HAL2     0.900000E-01   1.00800           0
     14221 MEMB     122      OSM      C12F     CTL2    -0.180000       12.0110           0
     14222 MEMB     122      OSM      H12F     HAL2     0.900000E-01   1.00800           0
     14223 MEMB     122      OSM      H12G     HAL2     0.900000E-01   1.00800           0
     14224 MEMB     122      OSM      C13F     CTL2    -0.180000       12.0110           0
     14225 MEMB     122      OSM      H13F     HAL2     0.900000E-01   1.00800           0
     14226 MEMB     122      OSM      H13G     HAL2     0.900000E-01   1.00800           0
     14227 MEMB     122      OSM      C14F     CTL2    -0.180000       12.0110           0
     14228 MEMB     122      OSM      H14F     HAL2     0.900000E-01   1.00800           0
     14229 MEMB     122      OSM      H14G     HAL2     0.900000E-01   1.00800           0
     14230 MEMB     122      OSM      C15F     CTL2    -0.180000       12.0110           0
     14231 MEMB     122      OSM      H15F     HAL2     0.900000E-01   1.00800           0
     14232 MEMB     122      OSM      H15G     HAL2     0.900000E-01   1.00800           0
     14233 MEMB     122      OSM      C16F     CTL2    -0.180000       12.0110           0
     14234 MEMB     122      OSM      H16F     HAL2     0.900000E-01   1.00800           0
     14235 MEMB     122      OSM      H16G     HAL2     0.900000E-01   1.00800           0
     14236 MEMB     122      OSM      C17F     CTL2    -0.180000       12.0110           0
     14237 MEMB     122      OSM      H17F     HAL2     0.900000E-01   1.00800           0
     14238 MEMB     122      OSM      H17G     HAL2     0.900000E-01   1.00800           0
     14239 MEMB     122      OSM      C18F     CTL3    -0.270000       12.0110           0
     14240 MEMB     122      OSM      H18F     HAL3     0.900000E-01   1.00800           0
     14241 MEMB     122      OSM      H18G     HAL3     0.900000E-01   1.00800           0
     14242 MEMB     122      OSM      H18H     HAL3     0.900000E-01   1.00800           0
     14243 MEMB     123      SAPE     N        NH3L    -0.300000       14.0070           0
     14244 MEMB     123      SAPE     HN1      HCL      0.330000       1.00800           0
     14245 MEMB     123      SAPE     HN2      HCL      0.330000       1.00800           0
     14246 MEMB     123      SAPE     HN3      HCL      0.330000       1.00800           0
     14247 MEMB     123      SAPE     C12      CTL2     0.130000       12.0110           0
     14248 MEMB     123      SAPE     H12A     HAL2     0.900000E-01   1.00800           0
     14249 MEMB     123      SAPE     H12B     HAL2     0.900000E-01   1.00800           0
     14250 MEMB     123      SAPE     C11      CTL2    -0.800000E-01   12.0110           0
     14251 MEMB     123      SAPE     H11A     HAL2     0.900000E-01   1.00800           0
     14252 MEMB     123      SAPE     H11B     HAL2     0.900000E-01   1.00800           0
     14253 MEMB     123      SAPE     P        PL        1.50000       30.9740           0
     14254 MEMB     123      SAPE     O13      O2L     -0.780000       15.9994           0
     14255 MEMB     123      SAPE     O14      O2L     -0.780000       15.9994           0
     14256 MEMB     123      SAPE     O12      OSLP    -0.570000       15.9994           0
     14257 MEMB     123      SAPE     O11      OSLP    -0.570000       15.9994           0
     14258 MEMB     123      SAPE     C1       CTL2    -0.800000E-01   12.0110           0
     14259 MEMB     123      SAPE     HA       HAL2     0.900000E-01   1.00800           0
     14260 MEMB     123      SAPE     HB       HAL2     0.900000E-01   1.00800           0
     14261 MEMB     123      SAPE     C2       CTL1     0.170000       12.0110           0
     14262 MEMB     123      SAPE     HS       HAL1     0.900000E-01   1.00800           0
     14263 MEMB     123      SAPE     O21      OSL     -0.490000       15.9994           0
     14264 MEMB     123      SAPE     C21      CL       0.900000       12.0110           0
     14265 MEMB     123      SAPE     O22      OBL     -0.630000       15.9994           0
     14266 MEMB     123      SAPE     C22      CTL2    -0.220000       12.0110           0
     14267 MEMB     123      SAPE     H2R      HAL2     0.900000E-01   1.00800           0
     14268 MEMB     123      SAPE     H2S      HAL2     0.900000E-01   1.00800           0
     14269 MEMB     123      SAPE     C3       CTL2     0.800000E-01   12.0110           0
     14270 MEMB     123      SAPE     HX       HAL2     0.900000E-01   1.00800           0
     14271 MEMB     123      SAPE     HY       HAL2     0.900000E-01   1.00800           0
     14272 MEMB     123      SAPE     O31      OSL     -0.490000       15.9994           0
     14273 MEMB     123      SAPE     C31      CL       0.900000       12.0110           0
     14274 MEMB     123      SAPE     O32      OBL     -0.630000       15.9994           0
     14275 MEMB     123      SAPE     C32      CTL2    -0.220000       12.0110           0
     14276 MEMB     123      SAPE     H2X      HAL2     0.900000E-01   1.00800           0
     14277 MEMB     123      SAPE     H2Y      HAL2     0.900000E-01   1.00800           0
     14278 MEMB     123      SAPE     C23      CTL2    -0.180000       12.0110           0
     14279 MEMB     123      SAPE     H3R      HAL2     0.900000E-01   1.00800           0
     14280 MEMB     123      SAPE     H3S      HAL2     0.900000E-01   1.00800           0
     14281 MEMB     123      SAPE     C24      CTL2    -0.180000       12.0110           0
     14282 MEMB     123      SAPE     H4R      HAL2     0.900000E-01   1.00800           0
     14283 MEMB     123      SAPE     H4S      HAL2     0.900000E-01   1.00800           0
     14284 MEMB     123      SAPE     C25      CEL1    -0.150000       12.0110           0
     14285 MEMB     123      SAPE     H5R      HEL1     0.150000       1.00800           0
     14286 MEMB     123      SAPE     C26      CEL1    -0.150000       12.0110           0
     14287 MEMB     123      SAPE     H6R      HEL1     0.150000       1.00800           0
     14288 MEMB     123      SAPE     C27      CTL2    -0.180000       12.0110           0
     14289 MEMB     123      SAPE     H7R      HAL2     0.900000E-01   1.00800           0
     14290 MEMB     123      SAPE     H7S      HAL2     0.900000E-01   1.00800           0
     14291 MEMB     123      SAPE     C28      CEL1    -0.150000       12.0110           0
     14292 MEMB     123      SAPE     H8R      HEL1     0.150000       1.00800           0
     14293 MEMB     123      SAPE     C29      CEL1    -0.150000       12.0110           0
     14294 MEMB     123      SAPE     H9R      HEL1     0.150000       1.00800           0
     14295 MEMB     123      SAPE     C210     CTL2    -0.180000       12.0110           0
     14296 MEMB     123      SAPE     H10R     HAL2     0.900000E-01   1.00800           0
     14297 MEMB     123      SAPE     H10S     HAL2     0.900000E-01   1.00800           0
     14298 MEMB     123      SAPE     C211     CEL1    -0.150000       12.0110           0
     14299 MEMB     123      SAPE     H11R     HEL1     0.150000       1.00800           0
     14300 MEMB     123      SAPE     C212     CEL1    -0.150000       12.0110           0
     14301 MEMB     123      SAPE     H12R     HEL1     0.150000       1.00800           0
     14302 MEMB     123      SAPE     C213     CTL2    -0.180000       12.0110           0
     14303 MEMB     123      SAPE     H13R     HAL2     0.900000E-01   1.00800           0
     14304 MEMB     123      SAPE     H13S     HAL2     0.900000E-01   1.00800           0
     14305 MEMB     123      SAPE     C214     CEL1    -0.150000       12.0110           0
     14306 MEMB     123      SAPE     H14R     HEL1     0.150000       1.00800           0
     14307 MEMB     123      SAPE     C215     CEL1    -0.150000       12.0110           0
     14308 MEMB     123      SAPE     H15R     HEL1     0.150000       1.00800           0
     14309 MEMB     123      SAPE     C216     CTL2    -0.180000       12.0110           0
     14310 MEMB     123      SAPE     H16R     HAL2     0.900000E-01   1.00800           0
     14311 MEMB     123      SAPE     H16S     HAL2     0.900000E-01   1.00800           0
     14312 MEMB     123      SAPE     C217     CTL2    -0.180000       12.0110           0
     14313 MEMB     123      SAPE     H17R     HAL2     0.900000E-01   1.00800           0
     14314 MEMB     123      SAPE     H17S     HAL2     0.900000E-01   1.00800           0
     14315 MEMB     123      SAPE     C218     CTL2    -0.180000       12.0110           0
     14316 MEMB     123      SAPE     H18R     HAL2     0.900000E-01   1.00800           0
     14317 MEMB     123      SAPE     H18S     HAL2     0.900000E-01   1.00800           0
     14318 MEMB     123      SAPE     C219     CTL2    -0.180000       12.0110           0
     14319 MEMB     123      SAPE     H19R     HAL2     0.900000E-01   1.00800           0
     14320 MEMB     123      SAPE     H19S     HAL2     0.900000E-01   1.00800           0
     14321 MEMB     123      SAPE     C220     CTL3    -0.270000       12.0110           0
     14322 MEMB     123      SAPE     H20R     HAL3     0.900000E-01   1.00800           0
     14323 MEMB     123      SAPE     H20S     HAL3     0.900000E-01   1.00800           0
     14324 MEMB     123      SAPE     H20T     HAL3     0.900000E-01   1.00800           0
     14325 MEMB     123      SAPE     C33      CTL2    -0.180000       12.0110           0
     14326 MEMB     123      SAPE     H3X      HAL2     0.900000E-01   1.00800           0
     14327 MEMB     123      SAPE     H3Y      HAL2     0.900000E-01   1.00800           0
     14328 MEMB     123      SAPE     C34      CTL2    -0.180000       12.0110           0
     14329 MEMB     123      SAPE     H4X      HAL2     0.900000E-01   1.00800           0
     14330 MEMB     123      SAPE     H4Y      HAL2     0.900000E-01   1.00800           0
     14331 MEMB     123      SAPE     C35      CTL2    -0.180000       12.0110           0
     14332 MEMB     123      SAPE     H5X      HAL2     0.900000E-01   1.00800           0
     14333 MEMB     123      SAPE     H5Y      HAL2     0.900000E-01   1.00800           0
     14334 MEMB     123      SAPE     C36      CTL2    -0.180000       12.0110           0
     14335 MEMB     123      SAPE     H6X      HAL2     0.900000E-01   1.00800           0
     14336 MEMB     123      SAPE     H6Y      HAL2     0.900000E-01   1.00800           0
     14337 MEMB     123      SAPE     C37      CTL2    -0.180000       12.0110           0
     14338 MEMB     123      SAPE     H7X      HAL2     0.900000E-01   1.00800           0
     14339 MEMB     123      SAPE     H7Y      HAL2     0.900000E-01   1.00800           0
     14340 MEMB     123      SAPE     C38      CTL2    -0.180000       12.0110           0
     14341 MEMB     123      SAPE     H8X      HAL2     0.900000E-01   1.00800           0
     14342 MEMB     123      SAPE     H8Y      HAL2     0.900000E-01   1.00800           0
     14343 MEMB     123      SAPE     C39      CTL2    -0.180000       12.0110           0
     14344 MEMB     123      SAPE     H9X      HAL2     0.900000E-01   1.00800           0
     14345 MEMB     123      SAPE     H9Y      HAL2     0.900000E-01   1.00800           0
     14346 MEMB     123      SAPE     C310     CTL2    -0.180000       12.0110           0
     14347 MEMB     123      SAPE     H10X     HAL2     0.900000E-01   1.00800           0
     14348 MEMB     123      SAPE     H10Y     HAL2     0.900000E-01   1.00800           0
     14349 MEMB     123      SAPE     C311     CTL2    -0.180000       12.0110           0
     14350 MEMB     123      SAPE     H11X     HAL2     0.900000E-01   1.00800           0
     14351 MEMB     123      SAPE     H11Y     HAL2     0.900000E-01   1.00800           0
     14352 MEMB     123      SAPE     C312     CTL2    -0.180000       12.0110           0
     14353 MEMB     123      SAPE     H12X     HAL2     0.900000E-01   1.00800           0
     14354 MEMB     123      SAPE     H12Y     HAL2     0.900000E-01   1.00800           0
     14355 MEMB     123      SAPE     C313     CTL2    -0.180000       12.0110           0
     14356 MEMB     123      SAPE     H13X     HAL2     0.900000E-01   1.00800           0
     14357 MEMB     123      SAPE     H13Y     HAL2     0.900000E-01   1.00800           0
     14358 MEMB     123      SAPE     C314     CTL2    -0.180000       12.0110           0
     14359 MEMB     123      SAPE     H14X     HAL2     0.900000E-01   1.00800           0
     14360 MEMB     123      SAPE     H14Y     HAL2     0.900000E-01   1.00800           0
     14361 MEMB     123      SAPE     C315     CTL2    -0.180000       12.0110           0
     14362 MEMB     123      SAPE     H15X     HAL2     0.900000E-01   1.00800           0
     14363 MEMB     123      SAPE     H15Y     HAL2     0.900000E-01   1.00800           0
     14364 MEMB     123      SAPE     C316     CTL2    -0.180000       12.0110           0
     14365 MEMB     123      SAPE     H16X     HAL2     0.900000E-01   1.00800           0
     14366 MEMB     123      SAPE     H16Y     HAL2     0.900000E-01   1.00800           0
     14367 MEMB     123      SAPE     C317     CTL2    -0.180000       12.0110           0
     14368 MEMB     123      SAPE     H17X     HAL2     0.900000E-01   1.00800           0
     14369 MEMB     123      SAPE     H17Y     HAL2     0.900000E-01   1.00800           0
     14370 MEMB     123      SAPE     C318     CTL3    -0.270000       12.0110           0
     14371 MEMB     123      SAPE     H18X     HAL3     0.900000E-01   1.00800           0
     14372 MEMB     123      SAPE     H18Y     HAL3     0.900000E-01   1.00800           0
     14373 MEMB     123      SAPE     H18Z     HAL3     0.900000E-01   1.00800           0
     14374 MEMB     124      SAPC     N        NTL     -0.600000       14.0070           0
     14375 MEMB     124      SAPC     C12      CTL2    -0.100000       12.0110           0
     14376 MEMB     124      SAPC     H12A     HL       0.250000       1.00800           0
     14377 MEMB     124      SAPC     H12B     HL       0.250000       1.00800           0
     14378 MEMB     124      SAPC     C13      CTL5    -0.350000       12.0110           0
     14379 MEMB     124      SAPC     H13A     HL       0.250000       1.00800           0
     14380 MEMB     124      SAPC     H13B     HL       0.250000       1.00800           0
     14381 MEMB     124      SAPC     H13C     HL       0.250000       1.00800           0
     14382 MEMB     124      SAPC     C14      CTL5    -0.350000       12.0110           0
     14383 MEMB     124      SAPC     H14A     HL       0.250000       1.00800           0
     14384 MEMB     124      SAPC     H14B     HL       0.250000       1.00800           0
     14385 MEMB     124      SAPC     H14C     HL       0.250000       1.00800           0
     14386 MEMB     124      SAPC     C15      CTL5    -0.350000       12.0110           0
     14387 MEMB     124      SAPC     H15A     HL       0.250000       1.00800           0
     14388 MEMB     124      SAPC     H15B     HL       0.250000       1.00800           0
     14389 MEMB     124      SAPC     H15C     HL       0.250000       1.00800           0
     14390 MEMB     124      SAPC     C11      CTL2    -0.800000E-01   12.0110           0
     14391 MEMB     124      SAPC     H11A     HAL2     0.900000E-01   1.00800           0
     14392 MEMB     124      SAPC     H11B     HAL2     0.900000E-01   1.00800           0
     14393 MEMB     124      SAPC     P        PL        1.50000       30.9740           0
     14394 MEMB     124      SAPC     O13      O2L     -0.780000       15.9994           0
     14395 MEMB     124      SAPC     O14      O2L     -0.780000       15.9994           0
     14396 MEMB     124      SAPC     O12      OSLP    -0.570000       15.9994           0
     14397 MEMB     124      SAPC     O11      OSLP    -0.570000       15.9994           0
     14398 MEMB     124      SAPC     C1       CTL2    -0.800000E-01   12.0110           0
     14399 MEMB     124      SAPC     HA       HAL2     0.900000E-01   1.00800           0
     14400 MEMB     124      SAPC     HB       HAL2     0.900000E-01   1.00800           0
     14401 MEMB     124      SAPC     C2       CTL1     0.170000       12.0110           0
     14402 MEMB     124      SAPC     HS       HAL1     0.900000E-01   1.00800           0
     14403 MEMB     124      SAPC     O21      OSL     -0.490000       15.9994           0
     14404 MEMB     124      SAPC     C21      CL       0.900000       12.0110           0
     14405 MEMB     124      SAPC     O22      OBL     -0.630000       15.9994           0
     14406 MEMB     124      SAPC     C22      CTL2    -0.220000       12.0110           0
     14407 MEMB     124      SAPC     H2R      HAL2     0.900000E-01   1.00800           0
     14408 MEMB     124      SAPC     H2S      HAL2     0.900000E-01   1.00800           0
     14409 MEMB     124      SAPC     C3       CTL2     0.800000E-01   12.0110           0
     14410 MEMB     124      SAPC     HX       HAL2     0.900000E-01   1.00800           0
     14411 MEMB     124      SAPC     HY       HAL2     0.900000E-01   1.00800           0
     14412 MEMB     124      SAPC     O31      OSL     -0.490000       15.9994           0
     14413 MEMB     124      SAPC     C31      CL       0.900000       12.0110           0
     14414 MEMB     124      SAPC     O32      OBL     -0.630000       15.9994           0
     14415 MEMB     124      SAPC     C32      CTL2    -0.220000       12.0110           0
     14416 MEMB     124      SAPC     H2X      HAL2     0.900000E-01   1.00800           0
     14417 MEMB     124      SAPC     H2Y      HAL2     0.900000E-01   1.00800           0
     14418 MEMB     124      SAPC     C23      CTL2    -0.180000       12.0110           0
     14419 MEMB     124      SAPC     H3R      HAL2     0.900000E-01   1.00800           0
     14420 MEMB     124      SAPC     H3S      HAL2     0.900000E-01   1.00800           0
     14421 MEMB     124      SAPC     C24      CTL2    -0.180000       12.0110           0
     14422 MEMB     124      SAPC     H4R      HAL2     0.900000E-01   1.00800           0
     14423 MEMB     124      SAPC     H4S      HAL2     0.900000E-01   1.00800           0
     14424 MEMB     124      SAPC     C25      CEL1    -0.150000       12.0110           0
     14425 MEMB     124      SAPC     H5R      HEL1     0.150000       1.00800           0
     14426 MEMB     124      SAPC     C26      CEL1    -0.150000       12.0110           0
     14427 MEMB     124      SAPC     H6R      HEL1     0.150000       1.00800           0
     14428 MEMB     124      SAPC     C27      CTL2    -0.180000       12.0110           0
     14429 MEMB     124      SAPC     H7R      HAL2     0.900000E-01   1.00800           0
     14430 MEMB     124      SAPC     H7S      HAL2     0.900000E-01   1.00800           0
     14431 MEMB     124      SAPC     C28      CEL1    -0.150000       12.0110           0
     14432 MEMB     124      SAPC     H8R      HEL1     0.150000       1.00800           0
     14433 MEMB     124      SAPC     C29      CEL1    -0.150000       12.0110           0
     14434 MEMB     124      SAPC     H9R      HEL1     0.150000       1.00800           0
     14435 MEMB     124      SAPC     C210     CTL2    -0.180000       12.0110           0
     14436 MEMB     124      SAPC     H10R     HAL2     0.900000E-01   1.00800           0
     14437 MEMB     124      SAPC     H10S     HAL2     0.900000E-01   1.00800           0
     14438 MEMB     124      SAPC     C211     CEL1    -0.150000       12.0110           0
     14439 MEMB     124      SAPC     H11R     HEL1     0.150000       1.00800           0
     14440 MEMB     124      SAPC     C212     CEL1    -0.150000       12.0110           0
     14441 MEMB     124      SAPC     H12R     HEL1     0.150000       1.00800           0
     14442 MEMB     124      SAPC     C213     CTL2    -0.180000       12.0110           0
     14443 MEMB     124      SAPC     H13R     HAL2     0.900000E-01   1.00800           0
     14444 MEMB     124      SAPC     H13S     HAL2     0.900000E-01   1.00800           0
     14445 MEMB     124      SAPC     C214     CEL1    -0.150000       12.0110           0
     14446 MEMB     124      SAPC     H14R     HEL1     0.150000       1.00800           0
     14447 MEMB     124      SAPC     C215     CEL1    -0.150000       12.0110           0
     14448 MEMB     124      SAPC     H15R     HEL1     0.150000       1.00800           0
     14449 MEMB     124      SAPC     C216     CTL2    -0.180000       12.0110           0
     14450 MEMB     124      SAPC     H16R     HAL2     0.900000E-01   1.00800           0
     14451 MEMB     124      SAPC     H16S     HAL2     0.900000E-01   1.00800           0
     14452 MEMB     124      SAPC     C217     CTL2    -0.180000       12.0110           0
     14453 MEMB     124      SAPC     H17R     HAL2     0.900000E-01   1.00800           0
     14454 MEMB     124      SAPC     H17S     HAL2     0.900000E-01   1.00800           0
     14455 MEMB     124      SAPC     C218     CTL2    -0.270000       12.0110           0
     14456 MEMB     124      SAPC     H18R     HAL2     0.900000E-01   1.00800           0
     14457 MEMB     124      SAPC     H18S     HAL2     0.900000E-01   1.00800           0
     14458 MEMB     124      SAPC     C219     CTL2    -0.180000       12.0110           0
     14459 MEMB     124      SAPC     H19R     HAL2     0.900000E-01   1.00800           0
     14460 MEMB     124      SAPC     H19S     HAL2     0.900000E-01   1.00800           0
     14461 MEMB     124      SAPC     C220     CTL3    -0.180000       12.0110           0
     14462 MEMB     124      SAPC     H20R     HAL3     0.900000E-01   1.00800           0
     14463 MEMB     124      SAPC     H20S     HAL3     0.900000E-01   1.00800           0
     14464 MEMB     124      SAPC     H20T     HAL3     0.900000E-01   1.00800           0
     14465 MEMB     124      SAPC     C33      CTL2    -0.180000       12.0110           0
     14466 MEMB     124      SAPC     H3X      HAL2     0.900000E-01   1.00800           0
     14467 MEMB     124      SAPC     H3Y      HAL2     0.900000E-01   1.00800           0
     14468 MEMB     124      SAPC     C34      CTL2    -0.180000       12.0110           0
     14469 MEMB     124      SAPC     H4X      HAL2     0.900000E-01   1.00800           0
     14470 MEMB     124      SAPC     H4Y      HAL2     0.900000E-01   1.00800           0
     14471 MEMB     124      SAPC     C35      CTL2    -0.180000       12.0110           0
     14472 MEMB     124      SAPC     H5X      HAL2     0.900000E-01   1.00800           0
     14473 MEMB     124      SAPC     H5Y      HAL2     0.900000E-01   1.00800           0
     14474 MEMB     124      SAPC     C36      CTL2    -0.180000       12.0110           0
     14475 MEMB     124      SAPC     H6X      HAL2     0.900000E-01   1.00800           0
     14476 MEMB     124      SAPC     H6Y      HAL2     0.900000E-01   1.00800           0
     14477 MEMB     124      SAPC     C37      CTL2    -0.180000       12.0110           0
     14478 MEMB     124      SAPC     H7X      HAL2     0.900000E-01   1.00800           0
     14479 MEMB     124      SAPC     H7Y      HAL2     0.900000E-01   1.00800           0
     14480 MEMB     124      SAPC     C38      CTL2    -0.180000       12.0110           0
     14481 MEMB     124      SAPC     H8X      HAL2     0.900000E-01   1.00800           0
     14482 MEMB     124      SAPC     H8Y      HAL2     0.900000E-01   1.00800           0
     14483 MEMB     124      SAPC     C39      CTL2    -0.180000       12.0110           0
     14484 MEMB     124      SAPC     H9X      HAL2     0.900000E-01   1.00800           0
     14485 MEMB     124      SAPC     H9Y      HAL2     0.900000E-01   1.00800           0
     14486 MEMB     124      SAPC     C310     CTL2    -0.180000       12.0110           0
     14487 MEMB     124      SAPC     H10X     HAL2     0.900000E-01   1.00800           0
     14488 MEMB     124      SAPC     H10Y     HAL2     0.900000E-01   1.00800           0
     14489 MEMB     124      SAPC     C311     CTL2    -0.180000       12.0110           0
     14490 MEMB     124      SAPC     H11X     HAL2     0.900000E-01   1.00800           0
     14491 MEMB     124      SAPC     H11Y     HAL2     0.900000E-01   1.00800           0
     14492 MEMB     124      SAPC     C312     CTL2    -0.180000       12.0110           0
     14493 MEMB     124      SAPC     H12X     HAL2     0.900000E-01   1.00800           0
     14494 MEMB     124      SAPC     H12Y     HAL2     0.900000E-01   1.00800           0
     14495 MEMB     124      SAPC     C313     CTL2    -0.180000       12.0110           0
     14496 MEMB     124      SAPC     H13X     HAL2     0.900000E-01   1.00800           0
     14497 MEMB     124      SAPC     H13Y     HAL2     0.900000E-01   1.00800           0
     14498 MEMB     124      SAPC     C314     CTL2    -0.180000       12.0110           0
     14499 MEMB     124      SAPC     H14X     HAL2     0.900000E-01   1.00800           0
     14500 MEMB     124      SAPC     H14Y     HAL2     0.900000E-01   1.00800           0
     14501 MEMB     124      SAPC     C315     CTL2    -0.180000       12.0110           0
     14502 MEMB     124      SAPC     H15X     HAL2     0.900000E-01   1.00800           0
     14503 MEMB     124      SAPC     H15Y     HAL2     0.900000E-01   1.00800           0
     14504 MEMB     124      SAPC     C316     CTL2    -0.180000       12.0110           0
     14505 MEMB     124      SAPC     H16X     HAL2     0.900000E-01   1.00800           0
     14506 MEMB     124      SAPC     H16Y     HAL2     0.900000E-01   1.00800           0
     14507 MEMB     124      SAPC     C317     CTL2    -0.180000       12.0110           0
     14508 MEMB     124      SAPC     H17X     HAL2     0.900000E-01   1.00800           0
     14509 MEMB     124      SAPC     H17Y     HAL2     0.900000E-01   1.00800           0
     14510 MEMB     124      SAPC     C318     CTL3    -0.270000       12.0110           0
     14511 MEMB     124      SAPC     H18X     HAL3     0.900000E-01   1.00800           0
     14512 MEMB     124      SAPC     H18Y     HAL3     0.900000E-01   1.00800           0
     14513 MEMB     124      SAPC     H18Z     HAL3     0.900000E-01   1.00800           0
     14514 MEMB     125      OSM      N        NTL     -0.600000       14.0070           0
     14515 MEMB     125      OSM      C15      CTL5    -0.350000       12.0110           0
     14516 MEMB     125      OSM      H15A     HL       0.250000       1.00800           0
     14517 MEMB     125      OSM      H15B     HL       0.250000       1.00800           0
     14518 MEMB     125      OSM      H15C     HL       0.250000       1.00800           0
     14519 MEMB     125      OSM      C14      CTL5    -0.350000       12.0110           0
     14520 MEMB     125      OSM      H14A     HL       0.250000       1.00800           0
     14521 MEMB     125      OSM      H14B     HL       0.250000       1.00800           0
     14522 MEMB     125      OSM      H14C     HL       0.250000       1.00800           0
     14523 MEMB     125      OSM      C13      CTL5    -0.350000       12.0110           0
     14524 MEMB     125      OSM      H13A     HL       0.250000       1.00800           0
     14525 MEMB     125      OSM      H13B     HL       0.250000       1.00800           0
     14526 MEMB     125      OSM      H13C     HL       0.250000       1.00800           0
     14527 MEMB     125      OSM      C12      CTL2    -0.100000       12.0110           0
     14528 MEMB     125      OSM      H12A     HL       0.250000       1.00800           0
     14529 MEMB     125      OSM      H12B     HL       0.250000       1.00800           0
     14530 MEMB     125      OSM      C11      CTL2    -0.800000E-01   12.0110           0
     14531 MEMB     125      OSM      H11A     HAL2     0.900000E-01   1.00800           0
     14532 MEMB     125      OSM      H11B     HAL2     0.900000E-01   1.00800           0
     14533 MEMB     125      OSM      P        PL        1.50000       30.9740           0
     14534 MEMB     125      OSM      O13      O2L     -0.780000       15.9994           0
     14535 MEMB     125      OSM      O14      O2L     -0.780000       15.9994           0
     14536 MEMB     125      OSM      O11      OSLP    -0.570000       15.9994           0
     14537 MEMB     125      OSM      O12      OSLP    -0.570000       15.9994           0
     14538 MEMB     125      OSM      C1S      CTL2    -0.800000E-01   12.0110           0
     14539 MEMB     125      OSM      H1S      HAL2     0.900000E-01   1.00800           0
     14540 MEMB     125      OSM      H1T      HAL2     0.900000E-01   1.00800           0
     14541 MEMB     125      OSM      NF       NHL     -0.700000       14.0070           0
     14542 MEMB     125      OSM      HNF      H        0.350000       1.00800           0
     14543 MEMB     125      OSM      C2S      CTL1     0.300000       12.0110           0
     14544 MEMB     125      OSM      H2S      HAL1     0.500000E-01   1.00800           0
     14545 MEMB     125      OSM      C3S      CTO1     0.500000       12.0110           0
     14546 MEMB     125      OSM      H3S      HAL1    -0.110000       1.00800           0
     14547 MEMB     125      OSM      O3       OHL     -0.690000       15.9994           0
     14548 MEMB     125      OSM      HO3      HOL      0.300000       1.00800           0
     14549 MEMB     125      OSM      C4S      CEL3    -0.150000       12.0110           0
     14550 MEMB     125      OSM      H4S      HEL1     0.150000       1.00800           0
     14551 MEMB     125      OSM      C5S      CEL3    -0.150000       12.0110           0
     14552 MEMB     125      OSM      H5S      HEL1     0.150000       1.00800           0
     14553 MEMB     125      OSM      C6S      CTL2    -0.180000       12.0110           0
     14554 MEMB     125      OSM      H6S      HAL2     0.900000E-01   1.00800           0
     14555 MEMB     125      OSM      H6T      HAL2     0.900000E-01   1.00800           0
     14556 MEMB     125      OSM      C7S      CTL2    -0.180000       12.0110           0
     14557 MEMB     125      OSM      H7S      HAL2     0.900000E-01   1.00800           0
     14558 MEMB     125      OSM      H7T      HAL2     0.900000E-01   1.00800           0
     14559 MEMB     125      OSM      C8S      CTL2    -0.180000       12.0110           0
     14560 MEMB     125      OSM      H8S      HAL2     0.900000E-01   1.00800           0
     14561 MEMB     125      OSM      H8T      HAL2     0.900000E-01   1.00800           0
     14562 MEMB     125      OSM      C9S      CTL2    -0.180000       12.0110           0
     14563 MEMB     125      OSM      H9S      HAL2     0.900000E-01   1.00800           0
     14564 MEMB     125      OSM      H9T      HAL2     0.900000E-01   1.00800           0
     14565 MEMB     125      OSM      C10S     CTL2    -0.180000       12.0110           0
     14566 MEMB     125      OSM      H10S     HAL2     0.900000E-01   1.00800           0
     14567 MEMB     125      OSM      H10T     HAL2     0.900000E-01   1.00800           0
     14568 MEMB     125      OSM      C11S     CTL2    -0.180000       12.0110           0
     14569 MEMB     125      OSM      H11S     HAL2     0.900000E-01   1.00800           0
     14570 MEMB     125      OSM      H11T     HAL2     0.900000E-01   1.00800           0
     14571 MEMB     125      OSM      C12S     CTL2    -0.180000       12.0110           0
     14572 MEMB     125      OSM      H12S     HAL2     0.900000E-01   1.00800           0
     14573 MEMB     125      OSM      H12T     HAL2     0.900000E-01   1.00800           0
     14574 MEMB     125      OSM      C13S     CTL2    -0.180000       12.0110           0
     14575 MEMB     125      OSM      H13S     HAL2     0.900000E-01   1.00800           0
     14576 MEMB     125      OSM      H13T     HAL2     0.900000E-01   1.00800           0
     14577 MEMB     125      OSM      C14S     CTL2    -0.180000       12.0110           0
     14578 MEMB     125      OSM      H14S     HAL2     0.900000E-01   1.00800           0
     14579 MEMB     125      OSM      H14T     HAL2     0.900000E-01   1.00800           0
     14580 MEMB     125      OSM      C15S     CTL2    -0.180000       12.0110           0
     14581 MEMB     125      OSM      H15S     HAL2     0.900000E-01   1.00800           0
     14582 MEMB     125      OSM      H15T     HAL2     0.900000E-01   1.00800           0
     14583 MEMB     125      OSM      C16S     CTL2    -0.180000       12.0110           0
     14584 MEMB     125      OSM      H16S     HAL2     0.900000E-01   1.00800           0
     14585 MEMB     125      OSM      H16T     HAL2     0.900000E-01   1.00800           0
     14586 MEMB     125      OSM      C17S     CTL2    -0.180000       12.0110           0
     14587 MEMB     125      OSM      H17S     HAL2     0.900000E-01   1.00800           0
     14588 MEMB     125      OSM      H17T     HAL2     0.900000E-01   1.00800           0
     14589 MEMB     125      OSM      C18S     CTL3    -0.270000       12.0110           0
     14590 MEMB     125      OSM      H18S     HAL3     0.900000E-01   1.00800           0
     14591 MEMB     125      OSM      H18T     HAL3     0.900000E-01   1.00800           0
     14592 MEMB     125      OSM      H18U     HAL3     0.900000E-01   1.00800           0
     14593 MEMB     125      OSM      C1F      C        0.550000       12.0110           0
     14594 MEMB     125      OSM      OF       O       -0.600000       15.9994           0
     14595 MEMB     125      OSM      C2F      CTL2    -0.700000E-01   12.0110           0
     14596 MEMB     125      OSM      H2F      HAL2     0.600000E-01   1.00800           0
     14597 MEMB     125      OSM      H2G      HAL2     0.600000E-01   1.00800           0
     14598 MEMB     125      OSM      C3F      CTL2    -0.180000       12.0110           0
     14599 MEMB     125      OSM      H3F      HAL2     0.900000E-01   1.00800           0
     14600 MEMB     125      OSM      H3G      HAL2     0.900000E-01   1.00800           0
     14601 MEMB     125      OSM      C4F      CTL2    -0.180000       12.0110           0
     14602 MEMB     125      OSM      H4F      HAL2     0.900000E-01   1.00800           0
     14603 MEMB     125      OSM      H4G      HAL2     0.900000E-01   1.00800           0
     14604 MEMB     125      OSM      C5F      CTL2    -0.180000       12.0110           0
     14605 MEMB     125      OSM      H5F      HAL2     0.900000E-01   1.00800           0
     14606 MEMB     125      OSM      H5G      HAL2     0.900000E-01   1.00800           0
     14607 MEMB     125      OSM      C6F      CTL2    -0.180000       12.0110           0
     14608 MEMB     125      OSM      H6F      HAL2     0.900000E-01   1.00800           0
     14609 MEMB     125      OSM      H6G      HAL2     0.900000E-01   1.00800           0
     14610 MEMB     125      OSM      C7F      CTL2    -0.180000       12.0110           0
     14611 MEMB     125      OSM      H7F      HAL2     0.900000E-01   1.00800           0
     14612 MEMB     125      OSM      H7G      HAL2     0.900000E-01   1.00800           0
     14613 MEMB     125      OSM      C8F      CTL2    -0.180000       12.0110           0
     14614 MEMB     125      OSM      H8F      HAL2     0.900000E-01   1.00800           0
     14615 MEMB     125      OSM      H8G      HAL2     0.900000E-01   1.00800           0
     14616 MEMB     125      OSM      C9F      CEL1    -0.150000       12.0110           0
     14617 MEMB     125      OSM      H9F      HEL1     0.150000       1.00800           0
     14618 MEMB     125      OSM      C10F     CEL1    -0.150000       12.0110           0
     14619 MEMB     125      OSM      H10F     HEL1     0.150000       1.00800           0
     14620 MEMB     125      OSM      C11F     CTL2    -0.180000       12.0110           0
     14621 MEMB     125      OSM      H11F     HAL2     0.900000E-01   1.00800           0
     14622 MEMB     125      OSM      H11G     HAL2     0.900000E-01   1.00800           0
     14623 MEMB     125      OSM      C12F     CTL2    -0.180000       12.0110           0
     14624 MEMB     125      OSM      H12F     HAL2     0.900000E-01   1.00800           0
     14625 MEMB     125      OSM      H12G     HAL2     0.900000E-01   1.00800           0
     14626 MEMB     125      OSM      C13F     CTL2    -0.180000       12.0110           0
     14627 MEMB     125      OSM      H13F     HAL2     0.900000E-01   1.00800           0
     14628 MEMB     125      OSM      H13G     HAL2     0.900000E-01   1.00800           0
     14629 MEMB     125      OSM      C14F     CTL2    -0.180000       12.0110           0
     14630 MEMB     125      OSM      H14F     HAL2     0.900000E-01   1.00800           0
     14631 MEMB     125      OSM      H14G     HAL2     0.900000E-01   1.00800           0
     14632 MEMB     125      OSM      C15F     CTL2    -0.180000       12.0110           0
     14633 MEMB     125      OSM      H15F     HAL2     0.900000E-01   1.00800           0
     14634 MEMB     125      OSM      H15G     HAL2     0.900000E-01   1.00800           0
     14635 MEMB     125      OSM      C16F     CTL2    -0.180000       12.0110           0
     14636 MEMB     125      OSM      H16F     HAL2     0.900000E-01   1.00800           0
     14637 MEMB     125      OSM      H16G     HAL2     0.900000E-01   1.00800           0
     14638 MEMB     125      OSM      C17F     CTL2    -0.180000       12.0110           0
     14639 MEMB     125      OSM      H17F     HAL2     0.900000E-01   1.00800           0
     14640 MEMB     125      OSM      H17G     HAL2     0.900000E-01   1.00800           0
     14641 MEMB     125      OSM      C18F     CTL3    -0.270000       12.0110           0
     14642 MEMB     125      OSM      H18F     HAL3     0.900000E-01   1.00800           0
     14643 MEMB     125      OSM      H18G     HAL3     0.900000E-01   1.00800           0
     14644 MEMB     125      OSM      H18H     HAL3     0.900000E-01   1.00800           0
     14645 MEMB     126      CHL1     C3       CRL1     0.140000       12.0110           0
     14646 MEMB     126      CHL1     H3       HGA1     0.900000E-01   1.00800           0
     14647 MEMB     126      CHL1     O3       OHL     -0.660000       15.9994           0
     14648 MEMB     126      CHL1     H3'      HOL      0.430000       1.00800           0
     14649 MEMB     126      CHL1     C4       CRL2    -0.180000       12.0110           0
     14650 MEMB     126      CHL1     H4A      HGA2     0.900000E-01   1.00800           0
     14651 MEMB     126      CHL1     H4B      HGA2     0.900000E-01   1.00800           0
     14652 MEMB     126      CHL1     C5       CEL1      0.00000       12.0110           0
     14653 MEMB     126      CHL1     C6       CEL1    -0.150000       12.0110           0
     14654 MEMB     126      CHL1     H6       HEL1     0.150000       1.00800           0
     14655 MEMB     126      CHL1     C7       CRL2    -0.180000       12.0110           0
     14656 MEMB     126      CHL1     H7A      HGA2     0.900000E-01   1.00800           0
     14657 MEMB     126      CHL1     H7B      HGA2     0.900000E-01   1.00800           0
     14658 MEMB     126      CHL1     C8       CRL1    -0.900000E-01   12.0110           0
     14659 MEMB     126      CHL1     H8       HGA1     0.900000E-01   1.00800           0
     14660 MEMB     126      CHL1     C14      CRL1    -0.900000E-01   12.0110           0
     14661 MEMB     126      CHL1     H14      HGA1     0.900000E-01   1.00800           0
     14662 MEMB     126      CHL1     C15      CRL2    -0.180000       12.0110           0
     14663 MEMB     126      CHL1     H15A     HGA2     0.900000E-01   1.00800           0
     14664 MEMB     126      CHL1     H15B     HGA2     0.900000E-01   1.00800           0
     14665 MEMB     126      CHL1     C16      CRL2    -0.180000       12.0110           0
     14666 MEMB     126      CHL1     H16A     HGA2     0.900000E-01   1.00800           0
     14667 MEMB     126      CHL1     H16B     HGA2     0.900000E-01   1.00800           0
     14668 MEMB     126      CHL1     C17      CRL1    -0.900000E-01   12.0110           0
     14669 MEMB     126      CHL1     H17      HGA1     0.900000E-01   1.00800           0
     14670 MEMB     126      CHL1     C13      CRL1      0.00000       12.0110           0
     14671 MEMB     126      CHL1     C18      CTL3    -0.270000       12.0110           0
     14672 MEMB     126      CHL1     H18A     HAL3     0.900000E-01   1.00800           0
     14673 MEMB     126      CHL1     H18B     HAL3     0.900000E-01   1.00800           0
     14674 MEMB     126      CHL1     H18C     HAL3     0.900000E-01   1.00800           0
     14675 MEMB     126      CHL1     C12      CRL2    -0.180000       12.0110           0
     14676 MEMB     126      CHL1     H12A     HGA2     0.900000E-01   1.00800           0
     14677 MEMB     126      CHL1     H12B     HGA2     0.900000E-01   1.00800           0
     14678 MEMB     126      CHL1     C11      CRL2    -0.180000       12.0110           0
     14679 MEMB     126      CHL1     H11A     HGA2     0.900000E-01   1.00800           0
     14680 MEMB     126      CHL1     H11B     HGA2     0.900000E-01   1.00800           0
     14681 MEMB     126      CHL1     C9       CRL1    -0.900000E-01   12.0110           0
     14682 MEMB     126      CHL1     H9       HGA1     0.900000E-01   1.00800           0
     14683 MEMB     126      CHL1     C10      CRL1      0.00000       12.0110           0
     14684 MEMB     126      CHL1     C19      CTL3    -0.270000       12.0110           0
     14685 MEMB     126      CHL1     H19A     HAL3     0.900000E-01   1.00800           0
     14686 MEMB     126      CHL1     H19B     HAL3     0.900000E-01   1.00800           0
     14687 MEMB     126      CHL1     H19C     HAL3     0.900000E-01   1.00800           0
     14688 MEMB     126      CHL1     C1       CRL2    -0.180000       12.0110           0
     14689 MEMB     126      CHL1     H1A      HGA2     0.900000E-01   1.00800           0
     14690 MEMB     126      CHL1     H1B      HGA2     0.900000E-01   1.00800           0
     14691 MEMB     126      CHL1     C2       CRL2    -0.180000       12.0110           0
     14692 MEMB     126      CHL1     H2A      HGA2     0.900000E-01   1.00800           0
     14693 MEMB     126      CHL1     H2B      HGA2     0.900000E-01   1.00800           0
     14694 MEMB     126      CHL1     C20      CTL1    -0.900000E-01   12.0110           0
     14695 MEMB     126      CHL1     H20      HAL1     0.900000E-01   1.00800           0
     14696 MEMB     126      CHL1     C21      CTL3    -0.270000       12.0110           0
     14697 MEMB     126      CHL1     H21A     HAL3     0.900000E-01   1.00800           0
     14698 MEMB     126      CHL1     H21B     HAL3     0.900000E-01   1.00800           0
     14699 MEMB     126      CHL1     H21C     HAL3     0.900000E-01   1.00800           0
     14700 MEMB     126      CHL1     C22      CTL2    -0.180000       12.0110           0
     14701 MEMB     126      CHL1     H22A     HAL2     0.900000E-01   1.00800           0
     14702 MEMB     126      CHL1     H22B     HAL2     0.900000E-01   1.00800           0
     14703 MEMB     126      CHL1     C23      CTL2    -0.180000       12.0110           0
     14704 MEMB     126      CHL1     H23A     HAL2     0.900000E-01   1.00800           0
     14705 MEMB     126      CHL1     H23B     HAL2     0.900000E-01   1.00800           0
     14706 MEMB     126      CHL1     C24      CTL2    -0.180000       12.0110           0
     14707 MEMB     126      CHL1     H24A     HAL2     0.900000E-01   1.00800           0
     14708 MEMB     126      CHL1     H24B     HAL2     0.900000E-01   1.00800           0
     14709 MEMB     126      CHL1     C25      CTL1    -0.900000E-01   12.0110           0
     14710 MEMB     126      CHL1     H25      HAL1     0.900000E-01   1.00800           0
     14711 MEMB     126      CHL1     C26      CTL3    -0.270000       12.0110           0
     14712 MEMB     126      CHL1     H26A     HAL3     0.900000E-01   1.00800           0
     14713 MEMB     126      CHL1     H26B     HAL3     0.900000E-01   1.00800           0
     14714 MEMB     126      CHL1     H26C     HAL3     0.900000E-01   1.00800           0
     14715 MEMB     126      CHL1     C27      CTL3    -0.270000       12.0110           0
     14716 MEMB     126      CHL1     H27A     HAL3     0.900000E-01   1.00800           0
     14717 MEMB     126      CHL1     H27B     HAL3     0.900000E-01   1.00800           0
     14718 MEMB     126      CHL1     H27C     HAL3     0.900000E-01   1.00800           0
     14719 MEMB     127      SAPS     N        NH3L    -0.300000       14.0070           0
     14720 MEMB     127      SAPS     HN1      HCL      0.330000       1.00800           0
     14721 MEMB     127      SAPS     HN2      HCL      0.330000       1.00800           0
     14722 MEMB     127      SAPS     HN3      HCL      0.330000       1.00800           0
     14723 MEMB     127      SAPS     C12      CTL1     0.210000       12.0110           0
     14724 MEMB     127      SAPS     H12A     HBL      0.100000       1.00800           0
     14725 MEMB     127      SAPS     C13      CCL      0.340000       12.0110           0
     14726 MEMB     127      SAPS     O13A     OCL     -0.670000       15.9994           0
     14727 MEMB     127      SAPS     O13B     OCL     -0.670000       15.9994           0
     14728 MEMB     127      SAPS     C11      CTL2    -0.800000E-01   12.0110           0
     14729 MEMB     127      SAPS     H11A     HAL2     0.900000E-01   1.00800           0
     14730 MEMB     127      SAPS     H11B     HAL2     0.900000E-01   1.00800           0
     14731 MEMB     127      SAPS     P        PL        1.50000       30.9740           0
     14732 MEMB     127      SAPS     O13      O2L     -0.780000       15.9994           0
     14733 MEMB     127      SAPS     O14      O2L     -0.780000       15.9994           0
     14734 MEMB     127      SAPS     O12      OSLP    -0.570000       15.9994           0
     14735 MEMB     127      SAPS     O11      OSLP    -0.570000       15.9994           0
     14736 MEMB     127      SAPS     C1       CTL2    -0.800000E-01   12.0110           0
     14737 MEMB     127      SAPS     HA       HAL2     0.900000E-01   1.00800           0
     14738 MEMB     127      SAPS     HB       HAL2     0.900000E-01   1.00800           0
     14739 MEMB     127      SAPS     C2       CTL1     0.170000       12.0110           0
     14740 MEMB     127      SAPS     HS       HAL1     0.900000E-01   1.00800           0
     14741 MEMB     127      SAPS     O21      OSL     -0.490000       15.9994           0
     14742 MEMB     127      SAPS     C21      CL       0.900000       12.0110           0
     14743 MEMB     127      SAPS     O22      OBL     -0.630000       15.9994           0
     14744 MEMB     127      SAPS     C22      CTL2    -0.220000       12.0110           0
     14745 MEMB     127      SAPS     H2R      HAL2     0.900000E-01   1.00800           0
     14746 MEMB     127      SAPS     H2S      HAL2     0.900000E-01   1.00800           0
     14747 MEMB     127      SAPS     C3       CTL2     0.800000E-01   12.0110           0
     14748 MEMB     127      SAPS     HX       HAL2     0.900000E-01   1.00800           0
     14749 MEMB     127      SAPS     HY       HAL2     0.900000E-01   1.00800           0
     14750 MEMB     127      SAPS     O31      OSL     -0.490000       15.9994           0
     14751 MEMB     127      SAPS     C31      CL       0.900000       12.0110           0
     14752 MEMB     127      SAPS     O32      OBL     -0.630000       15.9994           0
     14753 MEMB     127      SAPS     C32      CTL2    -0.220000       12.0110           0
     14754 MEMB     127      SAPS     H2X      HAL2     0.900000E-01   1.00800           0
     14755 MEMB     127      SAPS     H2Y      HAL2     0.900000E-01   1.00800           0
     14756 MEMB     127      SAPS     C23      CTL2    -0.180000       12.0110           0
     14757 MEMB     127      SAPS     H3R      HAL2     0.900000E-01   1.00800           0
     14758 MEMB     127      SAPS     H3S      HAL2     0.900000E-01   1.00800           0
     14759 MEMB     127      SAPS     C24      CTL2    -0.180000       12.0110           0
     14760 MEMB     127      SAPS     H4R      HAL2     0.900000E-01   1.00800           0
     14761 MEMB     127      SAPS     H4S      HAL2     0.900000E-01   1.00800           0
     14762 MEMB     127      SAPS     C25      CEL1    -0.150000       12.0110           0
     14763 MEMB     127      SAPS     H5R      HEL1     0.150000       1.00800           0
     14764 MEMB     127      SAPS     C26      CEL1    -0.150000       12.0110           0
     14765 MEMB     127      SAPS     H6R      HEL1     0.150000       1.00800           0
     14766 MEMB     127      SAPS     C27      CTL2    -0.180000       12.0110           0
     14767 MEMB     127      SAPS     H7R      HAL2     0.900000E-01   1.00800           0
     14768 MEMB     127      SAPS     H7S      HAL2     0.900000E-01   1.00800           0
     14769 MEMB     127      SAPS     C28      CEL1    -0.150000       12.0110           0
     14770 MEMB     127      SAPS     H8R      HEL1     0.150000       1.00800           0
     14771 MEMB     127      SAPS     C29      CEL1    -0.150000       12.0110           0
     14772 MEMB     127      SAPS     H9R      HEL1     0.150000       1.00800           0
     14773 MEMB     127      SAPS     C210     CTL2    -0.180000       12.0110           0
     14774 MEMB     127      SAPS     H10R     HAL2     0.900000E-01   1.00800           0
     14775 MEMB     127      SAPS     H10S     HAL2     0.900000E-01   1.00800           0
     14776 MEMB     127      SAPS     C211     CEL1    -0.150000       12.0110           0
     14777 MEMB     127      SAPS     H11R     HEL1     0.150000       1.00800           0
     14778 MEMB     127      SAPS     C212     CEL1    -0.150000       12.0110           0
     14779 MEMB     127      SAPS     H12R     HEL1     0.150000       1.00800           0
     14780 MEMB     127      SAPS     C213     CTL2    -0.180000       12.0110           0
     14781 MEMB     127      SAPS     H13R     HAL2     0.900000E-01   1.00800           0
     14782 MEMB     127      SAPS     H13S     HAL2     0.900000E-01   1.00800           0
     14783 MEMB     127      SAPS     C214     CEL1    -0.150000       12.0110           0
     14784 MEMB     127      SAPS     H14R     HEL1     0.150000       1.00800           0
     14785 MEMB     127      SAPS     C215     CEL1    -0.150000       12.0110           0
     14786 MEMB     127      SAPS     H15R     HEL1     0.150000       1.00800           0
     14787 MEMB     127      SAPS     C216     CTL2    -0.180000       12.0110           0
     14788 MEMB     127      SAPS     H16R     HAL2     0.900000E-01   1.00800           0
     14789 MEMB     127      SAPS     H16S     HAL2     0.900000E-01   1.00800           0
     14790 MEMB     127      SAPS     C217     CTL2    -0.180000       12.0110           0
     14791 MEMB     127      SAPS     H17R     HAL2     0.900000E-01   1.00800           0
     14792 MEMB     127      SAPS     H17S     HAL2     0.900000E-01   1.00800           0
     14793 MEMB     127      SAPS     C218     CTL2    -0.180000       12.0110           0
     14794 MEMB     127      SAPS     H18R     HAL2     0.900000E-01   1.00800           0
     14795 MEMB     127      SAPS     H18S     HAL2     0.900000E-01   1.00800           0
     14796 MEMB     127      SAPS     C219     CTL2    -0.180000       12.0110           0
     14797 MEMB     127      SAPS     H19R     HAL2     0.900000E-01   1.00800           0
     14798 MEMB     127      SAPS     H19S     HAL2     0.900000E-01   1.00800           0
     14799 MEMB     127      SAPS     C220     CTL3    -0.270000       12.0110           0
     14800 MEMB     127      SAPS     H20R     HAL3     0.900000E-01   1.00800           0
     14801 MEMB     127      SAPS     H20S     HAL3     0.900000E-01   1.00800           0
     14802 MEMB     127      SAPS     H20T     HAL3     0.900000E-01   1.00800           0
     14803 MEMB     127      SAPS     C33      CTL2    -0.180000       12.0110           0
     14804 MEMB     127      SAPS     H3X      HAL2     0.900000E-01   1.00800           0
     14805 MEMB     127      SAPS     H3Y      HAL2     0.900000E-01   1.00800           0
     14806 MEMB     127      SAPS     C34      CTL2    -0.180000       12.0110           0
     14807 MEMB     127      SAPS     H4X      HAL2     0.900000E-01   1.00800           0
     14808 MEMB     127      SAPS     H4Y      HAL2     0.900000E-01   1.00800           0
     14809 MEMB     127      SAPS     C35      CTL2    -0.180000       12.0110           0
     14810 MEMB     127      SAPS     H5X      HAL2     0.900000E-01   1.00800           0
     14811 MEMB     127      SAPS     H5Y      HAL2     0.900000E-01   1.00800           0
     14812 MEMB     127      SAPS     C36      CTL2    -0.180000       12.0110           0
     14813 MEMB     127      SAPS     H6X      HAL2     0.900000E-01   1.00800           0
     14814 MEMB     127      SAPS     H6Y      HAL2     0.900000E-01   1.00800           0
     14815 MEMB     127      SAPS     C37      CTL2    -0.180000       12.0110           0
     14816 MEMB     127      SAPS     H7X      HAL2     0.900000E-01   1.00800           0
     14817 MEMB     127      SAPS     H7Y      HAL2     0.900000E-01   1.00800           0
     14818 MEMB     127      SAPS     C38      CTL2    -0.180000       12.0110           0
     14819 MEMB     127      SAPS     H8X      HAL2     0.900000E-01   1.00800           0
     14820 MEMB     127      SAPS     H8Y      HAL2     0.900000E-01   1.00800           0
     14821 MEMB     127      SAPS     C39      CTL2    -0.180000       12.0110           0
     14822 MEMB     127      SAPS     H9X      HAL2     0.900000E-01   1.00800           0
     14823 MEMB     127      SAPS     H9Y      HAL2     0.900000E-01   1.00800           0
     14824 MEMB     127      SAPS     C310     CTL2    -0.180000       12.0110           0
     14825 MEMB     127      SAPS     H10X     HAL2     0.900000E-01   1.00800           0
     14826 MEMB     127      SAPS     H10Y     HAL2     0.900000E-01   1.00800           0
     14827 MEMB     127      SAPS     C311     CTL2    -0.180000       12.0110           0
     14828 MEMB     127      SAPS     H11X     HAL2     0.900000E-01   1.00800           0
     14829 MEMB     127      SAPS     H11Y     HAL2     0.900000E-01   1.00800           0
     14830 MEMB     127      SAPS     C312     CTL2    -0.180000       12.0110           0
     14831 MEMB     127      SAPS     H12X     HAL2     0.900000E-01   1.00800           0
     14832 MEMB     127      SAPS     H12Y     HAL2     0.900000E-01   1.00800           0
     14833 MEMB     127      SAPS     C313     CTL2    -0.180000       12.0110           0
     14834 MEMB     127      SAPS     H13X     HAL2     0.900000E-01   1.00800           0
     14835 MEMB     127      SAPS     H13Y     HAL2     0.900000E-01   1.00800           0
     14836 MEMB     127      SAPS     C314     CTL2    -0.180000       12.0110           0
     14837 MEMB     127      SAPS     H14X     HAL2     0.900000E-01   1.00800           0
     14838 MEMB     127      SAPS     H14Y     HAL2     0.900000E-01   1.00800           0
     14839 MEMB     127      SAPS     C315     CTL2    -0.180000       12.0110           0
     14840 MEMB     127      SAPS     H15X     HAL2     0.900000E-01   1.00800           0
     14841 MEMB     127      SAPS     H15Y     HAL2     0.900000E-01   1.00800           0
     14842 MEMB     127      SAPS     C316     CTL2    -0.180000       12.0110           0
     14843 MEMB     127      SAPS     H16X     HAL2     0.900000E-01   1.00800           0
     14844 MEMB     127      SAPS     H16Y     HAL2     0.900000E-01   1.00800           0
     14845 MEMB     127      SAPS     C317     CTL2    -0.180000       12.0110           0
     14846 MEMB     127      SAPS     H17X     HAL2     0.900000E-01   1.00800           0
     14847 MEMB     127      SAPS     H17Y     HAL2     0.900000E-01   1.00800           0
     14848 MEMB     127      SAPS     C318     CTL3    -0.270000       12.0110           0
     14849 MEMB     127      SAPS     H18X     HAL3     0.900000E-01   1.00800           0
     14850 MEMB     127      SAPS     H18Y     HAL3     0.900000E-01   1.00800           0
     14851 MEMB     127      SAPS     H18Z     HAL3     0.900000E-01   1.00800           0
     14852 MEMB     128      CHL1     C3       CRL1     0.140000       12.0110           0
     14853 MEMB     128      CHL1     H3       HGA1     0.900000E-01   1.00800           0
     14854 MEMB     128      CHL1     O3       OHL     -0.660000       15.9994           0
     14855 MEMB     128      CHL1     H3'      HOL      0.430000       1.00800           0
     14856 MEMB     128      CHL1     C4       CRL2    -0.180000       12.0110           0
     14857 MEMB     128      CHL1     H4A      HGA2     0.900000E-01   1.00800           0
     14858 MEMB     128      CHL1     H4B      HGA2     0.900000E-01   1.00800           0
     14859 MEMB     128      CHL1     C5       CEL1      0.00000       12.0110           0
     14860 MEMB     128      CHL1     C6       CEL1    -0.150000       12.0110           0
     14861 MEMB     128      CHL1     H6       HEL1     0.150000       1.00800           0
     14862 MEMB     128      CHL1     C7       CRL2    -0.180000       12.0110           0
     14863 MEMB     128      CHL1     H7A      HGA2     0.900000E-01   1.00800           0
     14864 MEMB     128      CHL1     H7B      HGA2     0.900000E-01   1.00800           0
     14865 MEMB     128      CHL1     C8       CRL1    -0.900000E-01   12.0110           0
     14866 MEMB     128      CHL1     H8       HGA1     0.900000E-01   1.00800           0
     14867 MEMB     128      CHL1     C14      CRL1    -0.900000E-01   12.0110           0
     14868 MEMB     128      CHL1     H14      HGA1     0.900000E-01   1.00800           0
     14869 MEMB     128      CHL1     C15      CRL2    -0.180000       12.0110           0
     14870 MEMB     128      CHL1     H15A     HGA2     0.900000E-01   1.00800           0
     14871 MEMB     128      CHL1     H15B     HGA2     0.900000E-01   1.00800           0
     14872 MEMB     128      CHL1     C16      CRL2    -0.180000       12.0110           0
     14873 MEMB     128      CHL1     H16A     HGA2     0.900000E-01   1.00800           0
     14874 MEMB     128      CHL1     H16B     HGA2     0.900000E-01   1.00800           0
     14875 MEMB     128      CHL1     C17      CRL1    -0.900000E-01   12.0110           0
     14876 MEMB     128      CHL1     H17      HGA1     0.900000E-01   1.00800           0
     14877 MEMB     128      CHL1     C13      CRL1      0.00000       12.0110           0
     14878 MEMB     128      CHL1     C18      CTL3    -0.270000       12.0110           0
     14879 MEMB     128      CHL1     H18A     HAL3     0.900000E-01   1.00800           0
     14880 MEMB     128      CHL1     H18B     HAL3     0.900000E-01   1.00800           0
     14881 MEMB     128      CHL1     H18C     HAL3     0.900000E-01   1.00800           0
     14882 MEMB     128      CHL1     C12      CRL2    -0.180000       12.0110           0
     14883 MEMB     128      CHL1     H12A     HGA2     0.900000E-01   1.00800           0
     14884 MEMB     128      CHL1     H12B     HGA2     0.900000E-01   1.00800           0
     14885 MEMB     128      CHL1     C11      CRL2    -0.180000       12.0110           0
     14886 MEMB     128      CHL1     H11A     HGA2     0.900000E-01   1.00800           0
     14887 MEMB     128      CHL1     H11B     HGA2     0.900000E-01   1.00800           0
     14888 MEMB     128      CHL1     C9       CRL1    -0.900000E-01   12.0110           0
     14889 MEMB     128      CHL1     H9       HGA1     0.900000E-01   1.00800           0
     14890 MEMB     128      CHL1     C10      CRL1      0.00000       12.0110           0
     14891 MEMB     128      CHL1     C19      CTL3    -0.270000       12.0110           0
     14892 MEMB     128      CHL1     H19A     HAL3     0.900000E-01   1.00800           0
     14893 MEMB     128      CHL1     H19B     HAL3     0.900000E-01   1.00800           0
     14894 MEMB     128      CHL1     H19C     HAL3     0.900000E-01   1.00800           0
     14895 MEMB     128      CHL1     C1       CRL2    -0.180000       12.0110           0
     14896 MEMB     128      CHL1     H1A      HGA2     0.900000E-01   1.00800           0
     14897 MEMB     128      CHL1     H1B      HGA2     0.900000E-01   1.00800           0
     14898 MEMB     128      CHL1     C2       CRL2    -0.180000       12.0110           0
     14899 MEMB     128      CHL1     H2A      HGA2     0.900000E-01   1.00800           0
     14900 MEMB     128      CHL1     H2B      HGA2     0.900000E-01   1.00800           0
     14901 MEMB     128      CHL1     C20      CTL1    -0.900000E-01   12.0110           0
     14902 MEMB     128      CHL1     H20      HAL1     0.900000E-01   1.00800           0
     14903 MEMB     128      CHL1     C21      CTL3    -0.270000       12.0110           0
     14904 MEMB     128      CHL1     H21A     HAL3     0.900000E-01   1.00800           0
     14905 MEMB     128      CHL1     H21B     HAL3     0.900000E-01   1.00800           0
     14906 MEMB     128      CHL1     H21C     HAL3     0.900000E-01   1.00800           0
     14907 MEMB     128      CHL1     C22      CTL2    -0.180000       12.0110           0
     14908 MEMB     128      CHL1     H22A     HAL2     0.900000E-01   1.00800           0
     14909 MEMB     128      CHL1     H22B     HAL2     0.900000E-01   1.00800           0
     14910 MEMB     128      CHL1     C23      CTL2    -0.180000       12.0110           0
     14911 MEMB     128      CHL1     H23A     HAL2     0.900000E-01   1.00800           0
     14912 MEMB     128      CHL1     H23B     HAL2     0.900000E-01   1.00800           0
     14913 MEMB     128      CHL1     C24      CTL2    -0.180000       12.0110           0
     14914 MEMB     128      CHL1     H24A     HAL2     0.900000E-01   1.00800           0
     14915 MEMB     128      CHL1     H24B     HAL2     0.900000E-01   1.00800           0
     14916 MEMB     128      CHL1     C25      CTL1    -0.900000E-01   12.0110           0
     14917 MEMB     128      CHL1     H25      HAL1     0.900000E-01   1.00800           0
     14918 MEMB     128      CHL1     C26      CTL3    -0.270000       12.0110           0
     14919 MEMB     128      CHL1     H26A     HAL3     0.900000E-01   1.00800           0
     14920 MEMB     128      CHL1     H26B     HAL3     0.900000E-01   1.00800           0
     14921 MEMB     128      CHL1     H26C     HAL3     0.900000E-01   1.00800           0
     14922 MEMB     128      CHL1     C27      CTL3    -0.270000       12.0110           0
     14923 MEMB     128      CHL1     H27A     HAL3     0.900000E-01   1.00800           0
     14924 MEMB     128      CHL1     H27B     HAL3     0.900000E-01   1.00800           0
     14925 MEMB     128      CHL1     H27C     HAL3     0.900000E-01   1.00800           0
     14926 MEMB     129      SAPS     N        NH3L    -0.300000       14.0070           0
     14927 MEMB     129      SAPS     HN1      HCL      0.330000       1.00800           0
     14928 MEMB     129      SAPS     HN2      HCL      0.330000       1.00800           0
     14929 MEMB     129      SAPS     HN3      HCL      0.330000       1.00800           0
     14930 MEMB     129      SAPS     C12      CTL1     0.210000       12.0110           0
     14931 MEMB     129      SAPS     H12A     HBL      0.100000       1.00800           0
     14932 MEMB     129      SAPS     C13      CCL      0.340000       12.0110           0
     14933 MEMB     129      SAPS     O13A     OCL     -0.670000       15.9994           0
     14934 MEMB     129      SAPS     O13B     OCL     -0.670000       15.9994           0
     14935 MEMB     129      SAPS     C11      CTL2    -0.800000E-01   12.0110           0
     14936 MEMB     129      SAPS     H11A     HAL2     0.900000E-01   1.00800           0
     14937 MEMB     129      SAPS     H11B     HAL2     0.900000E-01   1.00800           0
     14938 MEMB     129      SAPS     P        PL        1.50000       30.9740           0
     14939 MEMB     129      SAPS     O13      O2L     -0.780000       15.9994           0
     14940 MEMB     129      SAPS     O14      O2L     -0.780000       15.9994           0
     14941 MEMB     129      SAPS     O12      OSLP    -0.570000       15.9994           0
     14942 MEMB     129      SAPS     O11      OSLP    -0.570000       15.9994           0
     14943 MEMB     129      SAPS     C1       CTL2    -0.800000E-01   12.0110           0
     14944 MEMB     129      SAPS     HA       HAL2     0.900000E-01   1.00800           0
     14945 MEMB     129      SAPS     HB       HAL2     0.900000E-01   1.00800           0
     14946 MEMB     129      SAPS     C2       CTL1     0.170000       12.0110           0
     14947 MEMB     129      SAPS     HS       HAL1     0.900000E-01   1.00800           0
     14948 MEMB     129      SAPS     O21      OSL     -0.490000       15.9994           0
     14949 MEMB     129      SAPS     C21      CL       0.900000       12.0110           0
     14950 MEMB     129      SAPS     O22      OBL     -0.630000       15.9994           0
     14951 MEMB     129      SAPS     C22      CTL2    -0.220000       12.0110           0
     14952 MEMB     129      SAPS     H2R      HAL2     0.900000E-01   1.00800           0
     14953 MEMB     129      SAPS     H2S      HAL2     0.900000E-01   1.00800           0
     14954 MEMB     129      SAPS     C3       CTL2     0.800000E-01   12.0110           0
     14955 MEMB     129      SAPS     HX       HAL2     0.900000E-01   1.00800           0
     14956 MEMB     129      SAPS     HY       HAL2     0.900000E-01   1.00800           0
     14957 MEMB     129      SAPS     O31      OSL     -0.490000       15.9994           0
     14958 MEMB     129      SAPS     C31      CL       0.900000       12.0110           0
     14959 MEMB     129      SAPS     O32      OBL     -0.630000       15.9994           0
     14960 MEMB     129      SAPS     C32      CTL2    -0.220000       12.0110           0
     14961 MEMB     129      SAPS     H2X      HAL2     0.900000E-01   1.00800           0
     14962 MEMB     129      SAPS     H2Y      HAL2     0.900000E-01   1.00800           0
     14963 MEMB     129      SAPS     C23      CTL2    -0.180000       12.0110           0
     14964 MEMB     129      SAPS     H3R      HAL2     0.900000E-01   1.00800           0
     14965 MEMB     129      SAPS     H3S      HAL2     0.900000E-01   1.00800           0
     14966 MEMB     129      SAPS     C24      CTL2    -0.180000       12.0110           0
     14967 MEMB     129      SAPS     H4R      HAL2     0.900000E-01   1.00800           0
     14968 MEMB     129      SAPS     H4S      HAL2     0.900000E-01   1.00800           0
     14969 MEMB     129      SAPS     C25      CEL1    -0.150000       12.0110           0
     14970 MEMB     129      SAPS     H5R      HEL1     0.150000       1.00800           0
     14971 MEMB     129      SAPS     C26      CEL1    -0.150000       12.0110           0
     14972 MEMB     129      SAPS     H6R      HEL1     0.150000       1.00800           0
     14973 MEMB     129      SAPS     C27      CTL2    -0.180000       12.0110           0
     14974 MEMB     129      SAPS     H7R      HAL2     0.900000E-01   1.00800           0
     14975 MEMB     129      SAPS     H7S      HAL2     0.900000E-01   1.00800           0
     14976 MEMB     129      SAPS     C28      CEL1    -0.150000       12.0110           0
     14977 MEMB     129      SAPS     H8R      HEL1     0.150000       1.00800           0
     14978 MEMB     129      SAPS     C29      CEL1    -0.150000       12.0110           0
     14979 MEMB     129      SAPS     H9R      HEL1     0.150000       1.00800           0
     14980 MEMB     129      SAPS     C210     CTL2    -0.180000       12.0110           0
     14981 MEMB     129      SAPS     H10R     HAL2     0.900000E-01   1.00800           0
     14982 MEMB     129      SAPS     H10S     HAL2     0.900000E-01   1.00800           0
     14983 MEMB     129      SAPS     C211     CEL1    -0.150000       12.0110           0
     14984 MEMB     129      SAPS     H11R     HEL1     0.150000       1.00800           0
     14985 MEMB     129      SAPS     C212     CEL1    -0.150000       12.0110           0
     14986 MEMB     129      SAPS     H12R     HEL1     0.150000       1.00800           0
     14987 MEMB     129      SAPS     C213     CTL2    -0.180000       12.0110           0
     14988 MEMB     129      SAPS     H13R     HAL2     0.900000E-01   1.00800           0
     14989 MEMB     129      SAPS     H13S     HAL2     0.900000E-01   1.00800           0
     14990 MEMB     129      SAPS     C214     CEL1    -0.150000       12.0110           0
     14991 MEMB     129      SAPS     H14R     HEL1     0.150000       1.00800           0
     14992 MEMB     129      SAPS     C215     CEL1    -0.150000       12.0110           0
     14993 MEMB     129      SAPS     H15R     HEL1     0.150000       1.00800           0
     14994 MEMB     129      SAPS     C216     CTL2    -0.180000       12.0110           0
     14995 MEMB     129      SAPS     H16R     HAL2     0.900000E-01   1.00800           0
     14996 MEMB     129      SAPS     H16S     HAL2     0.900000E-01   1.00800           0
     14997 MEMB     129      SAPS     C217     CTL2    -0.180000       12.0110           0
     14998 MEMB     129      SAPS     H17R     HAL2     0.900000E-01   1.00800           0
     14999 MEMB     129      SAPS     H17S     HAL2     0.900000E-01   1.00800           0
     15000 MEMB     129      SAPS     C218     CTL2    -0.180000       12.0110           0
     15001 MEMB     129      SAPS     H18R     HAL2     0.900000E-01   1.00800           0
     15002 MEMB     129      SAPS     H18S     HAL2     0.900000E-01   1.00800           0
     15003 MEMB     129      SAPS     C219     CTL2    -0.180000       12.0110           0
     15004 MEMB     129      SAPS     H19R     HAL2     0.900000E-01   1.00800           0
     15005 MEMB     129      SAPS     H19S     HAL2     0.900000E-01   1.00800           0
     15006 MEMB     129      SAPS     C220     CTL3    -0.270000       12.0110           0
     15007 MEMB     129      SAPS     H20R     HAL3     0.900000E-01   1.00800           0
     15008 MEMB     129      SAPS     H20S     HAL3     0.900000E-01   1.00800           0
     15009 MEMB     129      SAPS     H20T     HAL3     0.900000E-01   1.00800           0
     15010 MEMB     129      SAPS     C33      CTL2    -0.180000       12.0110           0
     15011 MEMB     129      SAPS     H3X      HAL2     0.900000E-01   1.00800           0
     15012 MEMB     129      SAPS     H3Y      HAL2     0.900000E-01   1.00800           0
     15013 MEMB     129      SAPS     C34      CTL2    -0.180000       12.0110           0
     15014 MEMB     129      SAPS     H4X      HAL2     0.900000E-01   1.00800           0
     15015 MEMB     129      SAPS     H4Y      HAL2     0.900000E-01   1.00800           0
     15016 MEMB     129      SAPS     C35      CTL2    -0.180000       12.0110           0
     15017 MEMB     129      SAPS     H5X      HAL2     0.900000E-01   1.00800           0
     15018 MEMB     129      SAPS     H5Y      HAL2     0.900000E-01   1.00800           0
     15019 MEMB     129      SAPS     C36      CTL2    -0.180000       12.0110           0
     15020 MEMB     129      SAPS     H6X      HAL2     0.900000E-01   1.00800           0
     15021 MEMB     129      SAPS     H6Y      HAL2     0.900000E-01   1.00800           0
     15022 MEMB     129      SAPS     C37      CTL2    -0.180000       12.0110           0
     15023 MEMB     129      SAPS     H7X      HAL2     0.900000E-01   1.00800           0
     15024 MEMB     129      SAPS     H7Y      HAL2     0.900000E-01   1.00800           0
     15025 MEMB     129      SAPS     C38      CTL2    -0.180000       12.0110           0
     15026 MEMB     129      SAPS     H8X      HAL2     0.900000E-01   1.00800           0
     15027 MEMB     129      SAPS     H8Y      HAL2     0.900000E-01   1.00800           0
     15028 MEMB     129      SAPS     C39      CTL2    -0.180000       12.0110           0
     15029 MEMB     129      SAPS     H9X      HAL2     0.900000E-01   1.00800           0
     15030 MEMB     129      SAPS     H9Y      HAL2     0.900000E-01   1.00800           0
     15031 MEMB     129      SAPS     C310     CTL2    -0.180000       12.0110           0
     15032 MEMB     129      SAPS     H10X     HAL2     0.900000E-01   1.00800           0
     15033 MEMB     129      SAPS     H10Y     HAL2     0.900000E-01   1.00800           0
     15034 MEMB     129      SAPS     C311     CTL2    -0.180000       12.0110           0
     15035 MEMB     129      SAPS     H11X     HAL2     0.900000E-01   1.00800           0
     15036 MEMB     129      SAPS     H11Y     HAL2     0.900000E-01   1.00800           0
     15037 MEMB     129      SAPS     C312     CTL2    -0.180000       12.0110           0
     15038 MEMB     129      SAPS     H12X     HAL2     0.900000E-01   1.00800           0
     15039 MEMB     129      SAPS     H12Y     HAL2     0.900000E-01   1.00800           0
     15040 MEMB     129      SAPS     C313     CTL2    -0.180000       12.0110           0
     15041 MEMB     129      SAPS     H13X     HAL2     0.900000E-01   1.00800           0
     15042 MEMB     129      SAPS     H13Y     HAL2     0.900000E-01   1.00800           0
     15043 MEMB     129      SAPS     C314     CTL2    -0.180000       12.0110           0
     15044 MEMB     129      SAPS     H14X     HAL2     0.900000E-01   1.00800           0
     15045 MEMB     129      SAPS     H14Y     HAL2     0.900000E-01   1.00800           0
     15046 MEMB     129      SAPS     C315     CTL2    -0.180000       12.0110           0
     15047 MEMB     129      SAPS     H15X     HAL2     0.900000E-01   1.00800           0
     15048 MEMB     129      SAPS     H15Y     HAL2     0.900000E-01   1.00800           0
     15049 MEMB     129      SAPS     C316     CTL2    -0.180000       12.0110           0
     15050 MEMB     129      SAPS     H16X     HAL2     0.900000E-01   1.00800           0
     15051 MEMB     129      SAPS     H16Y     HAL2     0.900000E-01   1.00800           0
     15052 MEMB     129      SAPS     C317     CTL2    -0.180000       12.0110           0
     15053 MEMB     129      SAPS     H17X     HAL2     0.900000E-01   1.00800           0
     15054 MEMB     129      SAPS     H17Y     HAL2     0.900000E-01   1.00800           0
     15055 MEMB     129      SAPS     C318     CTL3    -0.270000       12.0110           0
     15056 MEMB     129      SAPS     H18X     HAL3     0.900000E-01   1.00800           0
     15057 MEMB     129      SAPS     H18Y     HAL3     0.900000E-01   1.00800           0
     15058 MEMB     129      SAPS     H18Z     HAL3     0.900000E-01   1.00800           0
     15059 MEMB     130      OSM      N        NTL     -0.600000       14.0070           0
     15060 MEMB     130      OSM      C15      CTL5    -0.350000       12.0110           0
     15061 MEMB     130      OSM      H15A     HL       0.250000       1.00800           0
     15062 MEMB     130      OSM      H15B     HL       0.250000       1.00800           0
     15063 MEMB     130      OSM      H15C     HL       0.250000       1.00800           0
     15064 MEMB     130      OSM      C14      CTL5    -0.350000       12.0110           0
     15065 MEMB     130      OSM      H14A     HL       0.250000       1.00800           0
     15066 MEMB     130      OSM      H14B     HL       0.250000       1.00800           0
     15067 MEMB     130      OSM      H14C     HL       0.250000       1.00800           0
     15068 MEMB     130      OSM      C13      CTL5    -0.350000       12.0110           0
     15069 MEMB     130      OSM      H13A     HL       0.250000       1.00800           0
     15070 MEMB     130      OSM      H13B     HL       0.250000       1.00800           0
     15071 MEMB     130      OSM      H13C     HL       0.250000       1.00800           0
     15072 MEMB     130      OSM      C12      CTL2    -0.100000       12.0110           0
     15073 MEMB     130      OSM      H12A     HL       0.250000       1.00800           0
     15074 MEMB     130      OSM      H12B     HL       0.250000       1.00800           0
     15075 MEMB     130      OSM      C11      CTL2    -0.800000E-01   12.0110           0
     15076 MEMB     130      OSM      H11A     HAL2     0.900000E-01   1.00800           0
     15077 MEMB     130      OSM      H11B     HAL2     0.900000E-01   1.00800           0
     15078 MEMB     130      OSM      P        PL        1.50000       30.9740           0
     15079 MEMB     130      OSM      O13      O2L     -0.780000       15.9994           0
     15080 MEMB     130      OSM      O14      O2L     -0.780000       15.9994           0
     15081 MEMB     130      OSM      O11      OSLP    -0.570000       15.9994           0
     15082 MEMB     130      OSM      O12      OSLP    -0.570000       15.9994           0
     15083 MEMB     130      OSM      C1S      CTL2    -0.800000E-01   12.0110           0
     15084 MEMB     130      OSM      H1S      HAL2     0.900000E-01   1.00800           0
     15085 MEMB     130      OSM      H1T      HAL2     0.900000E-01   1.00800           0
     15086 MEMB     130      OSM      NF       NHL     -0.700000       14.0070           0
     15087 MEMB     130      OSM      HNF      H        0.350000       1.00800           0
     15088 MEMB     130      OSM      C2S      CTL1     0.300000       12.0110           0
     15089 MEMB     130      OSM      H2S      HAL1     0.500000E-01   1.00800           0
     15090 MEMB     130      OSM      C3S      CTO1     0.500000       12.0110           0
     15091 MEMB     130      OSM      H3S      HAL1    -0.110000       1.00800           0
     15092 MEMB     130      OSM      O3       OHL     -0.690000       15.9994           0
     15093 MEMB     130      OSM      HO3      HOL      0.300000       1.00800           0
     15094 MEMB     130      OSM      C4S      CEL3    -0.150000       12.0110           0
     15095 MEMB     130      OSM      H4S      HEL1     0.150000       1.00800           0
     15096 MEMB     130      OSM      C5S      CEL3    -0.150000       12.0110           0
     15097 MEMB     130      OSM      H5S      HEL1     0.150000       1.00800           0
     15098 MEMB     130      OSM      C6S      CTL2    -0.180000       12.0110           0
     15099 MEMB     130      OSM      H6S      HAL2     0.900000E-01   1.00800           0
     15100 MEMB     130      OSM      H6T      HAL2     0.900000E-01   1.00800           0
     15101 MEMB     130      OSM      C7S      CTL2    -0.180000       12.0110           0
     15102 MEMB     130      OSM      H7S      HAL2     0.900000E-01   1.00800           0
     15103 MEMB     130      OSM      H7T      HAL2     0.900000E-01   1.00800           0
     15104 MEMB     130      OSM      C8S      CTL2    -0.180000       12.0110           0
     15105 MEMB     130      OSM      H8S      HAL2     0.900000E-01   1.00800           0
     15106 MEMB     130      OSM      H8T      HAL2     0.900000E-01   1.00800           0
     15107 MEMB     130      OSM      C9S      CTL2    -0.180000       12.0110           0
     15108 MEMB     130      OSM      H9S      HAL2     0.900000E-01   1.00800           0
     15109 MEMB     130      OSM      H9T      HAL2     0.900000E-01   1.00800           0
     15110 MEMB     130      OSM      C10S     CTL2    -0.180000       12.0110           0
     15111 MEMB     130      OSM      H10S     HAL2     0.900000E-01   1.00800           0
     15112 MEMB     130      OSM      H10T     HAL2     0.900000E-01   1.00800           0
     15113 MEMB     130      OSM      C11S     CTL2    -0.180000       12.0110           0
     15114 MEMB     130      OSM      H11S     HAL2     0.900000E-01   1.00800           0
     15115 MEMB     130      OSM      H11T     HAL2     0.900000E-01   1.00800           0
     15116 MEMB     130      OSM      C12S     CTL2    -0.180000       12.0110           0
     15117 MEMB     130      OSM      H12S     HAL2     0.900000E-01   1.00800           0
     15118 MEMB     130      OSM      H12T     HAL2     0.900000E-01   1.00800           0
     15119 MEMB     130      OSM      C13S     CTL2    -0.180000       12.0110           0
     15120 MEMB     130      OSM      H13S     HAL2     0.900000E-01   1.00800           0
     15121 MEMB     130      OSM      H13T     HAL2     0.900000E-01   1.00800           0
     15122 MEMB     130      OSM      C14S     CTL2    -0.180000       12.0110           0
     15123 MEMB     130      OSM      H14S     HAL2     0.900000E-01   1.00800           0
     15124 MEMB     130      OSM      H14T     HAL2     0.900000E-01   1.00800           0
     15125 MEMB     130      OSM      C15S     CTL2    -0.180000       12.0110           0
     15126 MEMB     130      OSM      H15S     HAL2     0.900000E-01   1.00800           0
     15127 MEMB     130      OSM      H15T     HAL2     0.900000E-01   1.00800           0
     15128 MEMB     130      OSM      C16S     CTL2    -0.180000       12.0110           0
     15129 MEMB     130      OSM      H16S     HAL2     0.900000E-01   1.00800           0
     15130 MEMB     130      OSM      H16T     HAL2     0.900000E-01   1.00800           0
     15131 MEMB     130      OSM      C17S     CTL2    -0.180000       12.0110           0
     15132 MEMB     130      OSM      H17S     HAL2     0.900000E-01   1.00800           0
     15133 MEMB     130      OSM      H17T     HAL2     0.900000E-01   1.00800           0
     15134 MEMB     130      OSM      C18S     CTL3    -0.270000       12.0110           0
     15135 MEMB     130      OSM      H18S     HAL3     0.900000E-01   1.00800           0
     15136 MEMB     130      OSM      H18T     HAL3     0.900000E-01   1.00800           0
     15137 MEMB     130      OSM      H18U     HAL3     0.900000E-01   1.00800           0
     15138 MEMB     130      OSM      C1F      C        0.550000       12.0110           0
     15139 MEMB     130      OSM      OF       O       -0.600000       15.9994           0
     15140 MEMB     130      OSM      C2F      CTL2    -0.700000E-01   12.0110           0
     15141 MEMB     130      OSM      H2F      HAL2     0.600000E-01   1.00800           0
     15142 MEMB     130      OSM      H2G      HAL2     0.600000E-01   1.00800           0
     15143 MEMB     130      OSM      C3F      CTL2    -0.180000       12.0110           0
     15144 MEMB     130      OSM      H3F      HAL2     0.900000E-01   1.00800           0
     15145 MEMB     130      OSM      H3G      HAL2     0.900000E-01   1.00800           0
     15146 MEMB     130      OSM      C4F      CTL2    -0.180000       12.0110           0
     15147 MEMB     130      OSM      H4F      HAL2     0.900000E-01   1.00800           0
     15148 MEMB     130      OSM      H4G      HAL2     0.900000E-01   1.00800           0
     15149 MEMB     130      OSM      C5F      CTL2    -0.180000       12.0110           0
     15150 MEMB     130      OSM      H5F      HAL2     0.900000E-01   1.00800           0
     15151 MEMB     130      OSM      H5G      HAL2     0.900000E-01   1.00800           0
     15152 MEMB     130      OSM      C6F      CTL2    -0.180000       12.0110           0
     15153 MEMB     130      OSM      H6F      HAL2     0.900000E-01   1.00800           0
     15154 MEMB     130      OSM      H6G      HAL2     0.900000E-01   1.00800           0
     15155 MEMB     130      OSM      C7F      CTL2    -0.180000       12.0110           0
     15156 MEMB     130      OSM      H7F      HAL2     0.900000E-01   1.00800           0
     15157 MEMB     130      OSM      H7G      HAL2     0.900000E-01   1.00800           0
     15158 MEMB     130      OSM      C8F      CTL2    -0.180000       12.0110           0
     15159 MEMB     130      OSM      H8F      HAL2     0.900000E-01   1.00800           0
     15160 MEMB     130      OSM      H8G      HAL2     0.900000E-01   1.00800           0
     15161 MEMB     130      OSM      C9F      CEL1    -0.150000       12.0110           0
     15162 MEMB     130      OSM      H9F      HEL1     0.150000       1.00800           0
     15163 MEMB     130      OSM      C10F     CEL1    -0.150000       12.0110           0
     15164 MEMB     130      OSM      H10F     HEL1     0.150000       1.00800           0
     15165 MEMB     130      OSM      C11F     CTL2    -0.180000       12.0110           0
     15166 MEMB     130      OSM      H11F     HAL2     0.900000E-01   1.00800           0
     15167 MEMB     130      OSM      H11G     HAL2     0.900000E-01   1.00800           0
     15168 MEMB     130      OSM      C12F     CTL2    -0.180000       12.0110           0
     15169 MEMB     130      OSM      H12F     HAL2     0.900000E-01   1.00800           0
     15170 MEMB     130      OSM      H12G     HAL2     0.900000E-01   1.00800           0
     15171 MEMB     130      OSM      C13F     CTL2    -0.180000       12.0110           0
     15172 MEMB     130      OSM      H13F     HAL2     0.900000E-01   1.00800           0
     15173 MEMB     130      OSM      H13G     HAL2     0.900000E-01   1.00800           0
     15174 MEMB     130      OSM      C14F     CTL2    -0.180000       12.0110           0
     15175 MEMB     130      OSM      H14F     HAL2     0.900000E-01   1.00800           0
     15176 MEMB     130      OSM      H14G     HAL2     0.900000E-01   1.00800           0
     15177 MEMB     130      OSM      C15F     CTL2    -0.180000       12.0110           0
     15178 MEMB     130      OSM      H15F     HAL2     0.900000E-01   1.00800           0
     15179 MEMB     130      OSM      H15G     HAL2     0.900000E-01   1.00800           0
     15180 MEMB     130      OSM      C16F     CTL2    -0.180000       12.0110           0
     15181 MEMB     130      OSM      H16F     HAL2     0.900000E-01   1.00800           0
     15182 MEMB     130      OSM      H16G     HAL2     0.900000E-01   1.00800           0
     15183 MEMB     130      OSM      C17F     CTL2    -0.180000       12.0110           0
     15184 MEMB     130      OSM      H17F     HAL2     0.900000E-01   1.00800           0
     15185 MEMB     130      OSM      H17G     HAL2     0.900000E-01   1.00800           0
     15186 MEMB     130      OSM      C18F     CTL3    -0.270000       12.0110           0
     15187 MEMB     130      OSM      H18F     HAL3     0.900000E-01   1.00800           0
     15188 MEMB     130      OSM      H18G     HAL3     0.900000E-01   1.00800           0
     15189 MEMB     130      OSM      H18H     HAL3     0.900000E-01   1.00800           0
     15190 MEMB     131      SAPE     N        NH3L    -0.300000       14.0070           0
     15191 MEMB     131      SAPE     HN1      HCL      0.330000       1.00800           0
     15192 MEMB     131      SAPE     HN2      HCL      0.330000       1.00800           0
     15193 MEMB     131      SAPE     HN3      HCL      0.330000       1.00800           0
     15194 MEMB     131      SAPE     C12      CTL2     0.130000       12.0110           0
     15195 MEMB     131      SAPE     H12A     HAL2     0.900000E-01   1.00800           0
     15196 MEMB     131      SAPE     H12B     HAL2     0.900000E-01   1.00800           0
     15197 MEMB     131      SAPE     C11      CTL2    -0.800000E-01   12.0110           0
     15198 MEMB     131      SAPE     H11A     HAL2     0.900000E-01   1.00800           0
     15199 MEMB     131      SAPE     H11B     HAL2     0.900000E-01   1.00800           0
     15200 MEMB     131      SAPE     P        PL        1.50000       30.9740           0
     15201 MEMB     131      SAPE     O13      O2L     -0.780000       15.9994           0
     15202 MEMB     131      SAPE     O14      O2L     -0.780000       15.9994           0
     15203 MEMB     131      SAPE     O12      OSLP    -0.570000       15.9994           0
     15204 MEMB     131      SAPE     O11      OSLP    -0.570000       15.9994           0
     15205 MEMB     131      SAPE     C1       CTL2    -0.800000E-01   12.0110           0
     15206 MEMB     131      SAPE     HA       HAL2     0.900000E-01   1.00800           0
     15207 MEMB     131      SAPE     HB       HAL2     0.900000E-01   1.00800           0
     15208 MEMB     131      SAPE     C2       CTL1     0.170000       12.0110           0
     15209 MEMB     131      SAPE     HS       HAL1     0.900000E-01   1.00800           0
     15210 MEMB     131      SAPE     O21      OSL     -0.490000       15.9994           0
     15211 MEMB     131      SAPE     C21      CL       0.900000       12.0110           0
     15212 MEMB     131      SAPE     O22      OBL     -0.630000       15.9994           0
     15213 MEMB     131      SAPE     C22      CTL2    -0.220000       12.0110           0
     15214 MEMB     131      SAPE     H2R      HAL2     0.900000E-01   1.00800           0
     15215 MEMB     131      SAPE     H2S      HAL2     0.900000E-01   1.00800           0
     15216 MEMB     131      SAPE     C3       CTL2     0.800000E-01   12.0110           0
     15217 MEMB     131      SAPE     HX       HAL2     0.900000E-01   1.00800           0
     15218 MEMB     131      SAPE     HY       HAL2     0.900000E-01   1.00800           0
     15219 MEMB     131      SAPE     O31      OSL     -0.490000       15.9994           0
     15220 MEMB     131      SAPE     C31      CL       0.900000       12.0110           0
     15221 MEMB     131      SAPE     O32      OBL     -0.630000       15.9994           0
     15222 MEMB     131      SAPE     C32      CTL2    -0.220000       12.0110           0
     15223 MEMB     131      SAPE     H2X      HAL2     0.900000E-01   1.00800           0
     15224 MEMB     131      SAPE     H2Y      HAL2     0.900000E-01   1.00800           0
     15225 MEMB     131      SAPE     C23      CTL2    -0.180000       12.0110           0
     15226 MEMB     131      SAPE     H3R      HAL2     0.900000E-01   1.00800           0
     15227 MEMB     131      SAPE     H3S      HAL2     0.900000E-01   1.00800           0
     15228 MEMB     131      SAPE     C24      CTL2    -0.180000       12.0110           0
     15229 MEMB     131      SAPE     H4R      HAL2     0.900000E-01   1.00800           0
     15230 MEMB     131      SAPE     H4S      HAL2     0.900000E-01   1.00800           0
     15231 MEMB     131      SAPE     C25      CEL1    -0.150000       12.0110           0
     15232 MEMB     131      SAPE     H5R      HEL1     0.150000       1.00800           0
     15233 MEMB     131      SAPE     C26      CEL1    -0.150000       12.0110           0
     15234 MEMB     131      SAPE     H6R      HEL1     0.150000       1.00800           0
     15235 MEMB     131      SAPE     C27      CTL2    -0.180000       12.0110           0
     15236 MEMB     131      SAPE     H7R      HAL2     0.900000E-01   1.00800           0
     15237 MEMB     131      SAPE     H7S      HAL2     0.900000E-01   1.00800           0
     15238 MEMB     131      SAPE     C28      CEL1    -0.150000       12.0110           0
     15239 MEMB     131      SAPE     H8R      HEL1     0.150000       1.00800           0
     15240 MEMB     131      SAPE     C29      CEL1    -0.150000       12.0110           0
     15241 MEMB     131      SAPE     H9R      HEL1     0.150000       1.00800           0
     15242 MEMB     131      SAPE     C210     CTL2    -0.180000       12.0110           0
     15243 MEMB     131      SAPE     H10R     HAL2     0.900000E-01   1.00800           0
     15244 MEMB     131      SAPE     H10S     HAL2     0.900000E-01   1.00800           0
     15245 MEMB     131      SAPE     C211     CEL1    -0.150000       12.0110           0
     15246 MEMB     131      SAPE     H11R     HEL1     0.150000       1.00800           0
     15247 MEMB     131      SAPE     C212     CEL1    -0.150000       12.0110           0
     15248 MEMB     131      SAPE     H12R     HEL1     0.150000       1.00800           0
     15249 MEMB     131      SAPE     C213     CTL2    -0.180000       12.0110           0
     15250 MEMB     131      SAPE     H13R     HAL2     0.900000E-01   1.00800           0
     15251 MEMB     131      SAPE     H13S     HAL2     0.900000E-01   1.00800           0
     15252 MEMB     131      SAPE     C214     CEL1    -0.150000       12.0110           0
     15253 MEMB     131      SAPE     H14R     HEL1     0.150000       1.00800           0
     15254 MEMB     131      SAPE     C215     CEL1    -0.150000       12.0110           0
     15255 MEMB     131      SAPE     H15R     HEL1     0.150000       1.00800           0
     15256 MEMB     131      SAPE     C216     CTL2    -0.180000       12.0110           0
     15257 MEMB     131      SAPE     H16R     HAL2     0.900000E-01   1.00800           0
     15258 MEMB     131      SAPE     H16S     HAL2     0.900000E-01   1.00800           0
     15259 MEMB     131      SAPE     C217     CTL2    -0.180000       12.0110           0
     15260 MEMB     131      SAPE     H17R     HAL2     0.900000E-01   1.00800           0
     15261 MEMB     131      SAPE     H17S     HAL2     0.900000E-01   1.00800           0
     15262 MEMB     131      SAPE     C218     CTL2    -0.180000       12.0110           0
     15263 MEMB     131      SAPE     H18R     HAL2     0.900000E-01   1.00800           0
     15264 MEMB     131      SAPE     H18S     HAL2     0.900000E-01   1.00800           0
     15265 MEMB     131      SAPE     C219     CTL2    -0.180000       12.0110           0
     15266 MEMB     131      SAPE     H19R     HAL2     0.900000E-01   1.00800           0
     15267 MEMB     131      SAPE     H19S     HAL2     0.900000E-01   1.00800           0
     15268 MEMB     131      SAPE     C220     CTL3    -0.270000       12.0110           0
     15269 MEMB     131      SAPE     H20R     HAL3     0.900000E-01   1.00800           0
     15270 MEMB     131      SAPE     H20S     HAL3     0.900000E-01   1.00800           0
     15271 MEMB     131      SAPE     H20T     HAL3     0.900000E-01   1.00800           0
     15272 MEMB     131      SAPE     C33      CTL2    -0.180000       12.0110           0
     15273 MEMB     131      SAPE     H3X      HAL2     0.900000E-01   1.00800           0
     15274 MEMB     131      SAPE     H3Y      HAL2     0.900000E-01   1.00800           0
     15275 MEMB     131      SAPE     C34      CTL2    -0.180000       12.0110           0
     15276 MEMB     131      SAPE     H4X      HAL2     0.900000E-01   1.00800           0
     15277 MEMB     131      SAPE     H4Y      HAL2     0.900000E-01   1.00800           0
     15278 MEMB     131      SAPE     C35      CTL2    -0.180000       12.0110           0
     15279 MEMB     131      SAPE     H5X      HAL2     0.900000E-01   1.00800           0
     15280 MEMB     131      SAPE     H5Y      HAL2     0.900000E-01   1.00800           0
     15281 MEMB     131      SAPE     C36      CTL2    -0.180000       12.0110           0
     15282 MEMB     131      SAPE     H6X      HAL2     0.900000E-01   1.00800           0
     15283 MEMB     131      SAPE     H6Y      HAL2     0.900000E-01   1.00800           0
     15284 MEMB     131      SAPE     C37      CTL2    -0.180000       12.0110           0
     15285 MEMB     131      SAPE     H7X      HAL2     0.900000E-01   1.00800           0
     15286 MEMB     131      SAPE     H7Y      HAL2     0.900000E-01   1.00800           0
     15287 MEMB     131      SAPE     C38      CTL2    -0.180000       12.0110           0
     15288 MEMB     131      SAPE     H8X      HAL2     0.900000E-01   1.00800           0
     15289 MEMB     131      SAPE     H8Y      HAL2     0.900000E-01   1.00800           0
     15290 MEMB     131      SAPE     C39      CTL2    -0.180000       12.0110           0
     15291 MEMB     131      SAPE     H9X      HAL2     0.900000E-01   1.00800           0
     15292 MEMB     131      SAPE     H9Y      HAL2     0.900000E-01   1.00800           0
     15293 MEMB     131      SAPE     C310     CTL2    -0.180000       12.0110           0
     15294 MEMB     131      SAPE     H10X     HAL2     0.900000E-01   1.00800           0
     15295 MEMB     131      SAPE     H10Y     HAL2     0.900000E-01   1.00800           0
     15296 MEMB     131      SAPE     C311     CTL2    -0.180000       12.0110           0
     15297 MEMB     131      SAPE     H11X     HAL2     0.900000E-01   1.00800           0
     15298 MEMB     131      SAPE     H11Y     HAL2     0.900000E-01   1.00800           0
     15299 MEMB     131      SAPE     C312     CTL2    -0.180000       12.0110           0
     15300 MEMB     131      SAPE     H12X     HAL2     0.900000E-01   1.00800           0
     15301 MEMB     131      SAPE     H12Y     HAL2     0.900000E-01   1.00800           0
     15302 MEMB     131      SAPE     C313     CTL2    -0.180000       12.0110           0
     15303 MEMB     131      SAPE     H13X     HAL2     0.900000E-01   1.00800           0
     15304 MEMB     131      SAPE     H13Y     HAL2     0.900000E-01   1.00800           0
     15305 MEMB     131      SAPE     C314     CTL2    -0.180000       12.0110           0
     15306 MEMB     131      SAPE     H14X     HAL2     0.900000E-01   1.00800           0
     15307 MEMB     131      SAPE     H14Y     HAL2     0.900000E-01   1.00800           0
     15308 MEMB     131      SAPE     C315     CTL2    -0.180000       12.0110           0
     15309 MEMB     131      SAPE     H15X     HAL2     0.900000E-01   1.00800           0
     15310 MEMB     131      SAPE     H15Y     HAL2     0.900000E-01   1.00800           0
     15311 MEMB     131      SAPE     C316     CTL2    -0.180000       12.0110           0
     15312 MEMB     131      SAPE     H16X     HAL2     0.900000E-01   1.00800           0
     15313 MEMB     131      SAPE     H16Y     HAL2     0.900000E-01   1.00800           0
     15314 MEMB     131      SAPE     C317     CTL2    -0.180000       12.0110           0
     15315 MEMB     131      SAPE     H17X     HAL2     0.900000E-01   1.00800           0
     15316 MEMB     131      SAPE     H17Y     HAL2     0.900000E-01   1.00800           0
     15317 MEMB     131      SAPE     C318     CTL3    -0.270000       12.0110           0
     15318 MEMB     131      SAPE     H18X     HAL3     0.900000E-01   1.00800           0
     15319 MEMB     131      SAPE     H18Y     HAL3     0.900000E-01   1.00800           0
     15320 MEMB     131      SAPE     H18Z     HAL3     0.900000E-01   1.00800           0
     15321 MEMB     132      CHL1     C3       CRL1     0.140000       12.0110           0
     15322 MEMB     132      CHL1     H3       HGA1     0.900000E-01   1.00800           0
     15323 MEMB     132      CHL1     O3       OHL     -0.660000       15.9994           0
     15324 MEMB     132      CHL1     H3'      HOL      0.430000       1.00800           0
     15325 MEMB     132      CHL1     C4       CRL2    -0.180000       12.0110           0
     15326 MEMB     132      CHL1     H4A      HGA2     0.900000E-01   1.00800           0
     15327 MEMB     132      CHL1     H4B      HGA2     0.900000E-01   1.00800           0
     15328 MEMB     132      CHL1     C5       CEL1      0.00000       12.0110           0
     15329 MEMB     132      CHL1     C6       CEL1    -0.150000       12.0110           0
     15330 MEMB     132      CHL1     H6       HEL1     0.150000       1.00800           0
     15331 MEMB     132      CHL1     C7       CRL2    -0.180000       12.0110           0
     15332 MEMB     132      CHL1     H7A      HGA2     0.900000E-01   1.00800           0
     15333 MEMB     132      CHL1     H7B      HGA2     0.900000E-01   1.00800           0
     15334 MEMB     132      CHL1     C8       CRL1    -0.900000E-01   12.0110           0
     15335 MEMB     132      CHL1     H8       HGA1     0.900000E-01   1.00800           0
     15336 MEMB     132      CHL1     C14      CRL1    -0.900000E-01   12.0110           0
     15337 MEMB     132      CHL1     H14      HGA1     0.900000E-01   1.00800           0
     15338 MEMB     132      CHL1     C15      CRL2    -0.180000       12.0110           0
     15339 MEMB     132      CHL1     H15A     HGA2     0.900000E-01   1.00800           0
     15340 MEMB     132      CHL1     H15B     HGA2     0.900000E-01   1.00800           0
     15341 MEMB     132      CHL1     C16      CRL2    -0.180000       12.0110           0
     15342 MEMB     132      CHL1     H16A     HGA2     0.900000E-01   1.00800           0
     15343 MEMB     132      CHL1     H16B     HGA2     0.900000E-01   1.00800           0
     15344 MEMB     132      CHL1     C17      CRL1    -0.900000E-01   12.0110           0
     15345 MEMB     132      CHL1     H17      HGA1     0.900000E-01   1.00800           0
     15346 MEMB     132      CHL1     C13      CRL1      0.00000       12.0110           0
     15347 MEMB     132      CHL1     C18      CTL3    -0.270000       12.0110           0
     15348 MEMB     132      CHL1     H18A     HAL3     0.900000E-01   1.00800           0
     15349 MEMB     132      CHL1     H18B     HAL3     0.900000E-01   1.00800           0
     15350 MEMB     132      CHL1     H18C     HAL3     0.900000E-01   1.00800           0
     15351 MEMB     132      CHL1     C12      CRL2    -0.180000       12.0110           0
     15352 MEMB     132      CHL1     H12A     HGA2     0.900000E-01   1.00800           0
     15353 MEMB     132      CHL1     H12B     HGA2     0.900000E-01   1.00800           0
     15354 MEMB     132      CHL1     C11      CRL2    -0.180000       12.0110           0
     15355 MEMB     132      CHL1     H11A     HGA2     0.900000E-01   1.00800           0
     15356 MEMB     132      CHL1     H11B     HGA2     0.900000E-01   1.00800           0
     15357 MEMB     132      CHL1     C9       CRL1    -0.900000E-01   12.0110           0
     15358 MEMB     132      CHL1     H9       HGA1     0.900000E-01   1.00800           0
     15359 MEMB     132      CHL1     C10      CRL1      0.00000       12.0110           0
     15360 MEMB     132      CHL1     C19      CTL3    -0.270000       12.0110           0
     15361 MEMB     132      CHL1     H19A     HAL3     0.900000E-01   1.00800           0
     15362 MEMB     132      CHL1     H19B     HAL3     0.900000E-01   1.00800           0
     15363 MEMB     132      CHL1     H19C     HAL3     0.900000E-01   1.00800           0
     15364 MEMB     132      CHL1     C1       CRL2    -0.180000       12.0110           0
     15365 MEMB     132      CHL1     H1A      HGA2     0.900000E-01   1.00800           0
     15366 MEMB     132      CHL1     H1B      HGA2     0.900000E-01   1.00800           0
     15367 MEMB     132      CHL1     C2       CRL2    -0.180000       12.0110           0
     15368 MEMB     132      CHL1     H2A      HGA2     0.900000E-01   1.00800           0
     15369 MEMB     132      CHL1     H2B      HGA2     0.900000E-01   1.00800           0
     15370 MEMB     132      CHL1     C20      CTL1    -0.900000E-01   12.0110           0
     15371 MEMB     132      CHL1     H20      HAL1     0.900000E-01   1.00800           0
     15372 MEMB     132      CHL1     C21      CTL3    -0.270000       12.0110           0
     15373 MEMB     132      CHL1     H21A     HAL3     0.900000E-01   1.00800           0
     15374 MEMB     132      CHL1     H21B     HAL3     0.900000E-01   1.00800           0
     15375 MEMB     132      CHL1     H21C     HAL3     0.900000E-01   1.00800           0
     15376 MEMB     132      CHL1     C22      CTL2    -0.180000       12.0110           0
     15377 MEMB     132      CHL1     H22A     HAL2     0.900000E-01   1.00800           0
     15378 MEMB     132      CHL1     H22B     HAL2     0.900000E-01   1.00800           0
     15379 MEMB     132      CHL1     C23      CTL2    -0.180000       12.0110           0
     15380 MEMB     132      CHL1     H23A     HAL2     0.900000E-01   1.00800           0
     15381 MEMB     132      CHL1     H23B     HAL2     0.900000E-01   1.00800           0
     15382 MEMB     132      CHL1     C24      CTL2    -0.180000       12.0110           0
     15383 MEMB     132      CHL1     H24A     HAL2     0.900000E-01   1.00800           0
     15384 MEMB     132      CHL1     H24B     HAL2     0.900000E-01   1.00800           0
     15385 MEMB     132      CHL1     C25      CTL1    -0.900000E-01   12.0110           0
     15386 MEMB     132      CHL1     H25      HAL1     0.900000E-01   1.00800           0
     15387 MEMB     132      CHL1     C26      CTL3    -0.270000       12.0110           0
     15388 MEMB     132      CHL1     H26A     HAL3     0.900000E-01   1.00800           0
     15389 MEMB     132      CHL1     H26B     HAL3     0.900000E-01   1.00800           0
     15390 MEMB     132      CHL1     H26C     HAL3     0.900000E-01   1.00800           0
     15391 MEMB     132      CHL1     C27      CTL3    -0.270000       12.0110           0
     15392 MEMB     132      CHL1     H27A     HAL3     0.900000E-01   1.00800           0
     15393 MEMB     132      CHL1     H27B     HAL3     0.900000E-01   1.00800           0
     15394 MEMB     132      CHL1     H27C     HAL3     0.900000E-01   1.00800           0
     15395 MEMB     133      OSM      N        NTL     -0.600000       14.0070           0
     15396 MEMB     133      OSM      C15      CTL5    -0.350000       12.0110           0
     15397 MEMB     133      OSM      H15A     HL       0.250000       1.00800           0
     15398 MEMB     133      OSM      H15B     HL       0.250000       1.00800           0
     15399 MEMB     133      OSM      H15C     HL       0.250000       1.00800           0
     15400 MEMB     133      OSM      C14      CTL5    -0.350000       12.0110           0
     15401 MEMB     133      OSM      H14A     HL       0.250000       1.00800           0
     15402 MEMB     133      OSM      H14B     HL       0.250000       1.00800           0
     15403 MEMB     133      OSM      H14C     HL       0.250000       1.00800           0
     15404 MEMB     133      OSM      C13      CTL5    -0.350000       12.0110           0
     15405 MEMB     133      OSM      H13A     HL       0.250000       1.00800           0
     15406 MEMB     133      OSM      H13B     HL       0.250000       1.00800           0
     15407 MEMB     133      OSM      H13C     HL       0.250000       1.00800           0
     15408 MEMB     133      OSM      C12      CTL2    -0.100000       12.0110           0
     15409 MEMB     133      OSM      H12A     HL       0.250000       1.00800           0
     15410 MEMB     133      OSM      H12B     HL       0.250000       1.00800           0
     15411 MEMB     133      OSM      C11      CTL2    -0.800000E-01   12.0110           0
     15412 MEMB     133      OSM      H11A     HAL2     0.900000E-01   1.00800           0
     15413 MEMB     133      OSM      H11B     HAL2     0.900000E-01   1.00800           0
     15414 MEMB     133      OSM      P        PL        1.50000       30.9740           0
     15415 MEMB     133      OSM      O13      O2L     -0.780000       15.9994           0
     15416 MEMB     133      OSM      O14      O2L     -0.780000       15.9994           0
     15417 MEMB     133      OSM      O11      OSLP    -0.570000       15.9994           0
     15418 MEMB     133      OSM      O12      OSLP    -0.570000       15.9994           0
     15419 MEMB     133      OSM      C1S      CTL2    -0.800000E-01   12.0110           0
     15420 MEMB     133      OSM      H1S      HAL2     0.900000E-01   1.00800           0
     15421 MEMB     133      OSM      H1T      HAL2     0.900000E-01   1.00800           0
     15422 MEMB     133      OSM      NF       NHL     -0.700000       14.0070           0
     15423 MEMB     133      OSM      HNF      H        0.350000       1.00800           0
     15424 MEMB     133      OSM      C2S      CTL1     0.300000       12.0110           0
     15425 MEMB     133      OSM      H2S      HAL1     0.500000E-01   1.00800           0
     15426 MEMB     133      OSM      C3S      CTO1     0.500000       12.0110           0
     15427 MEMB     133      OSM      H3S      HAL1    -0.110000       1.00800           0
     15428 MEMB     133      OSM      O3       OHL     -0.690000       15.9994           0
     15429 MEMB     133      OSM      HO3      HOL      0.300000       1.00800           0
     15430 MEMB     133      OSM      C4S      CEL3    -0.150000       12.0110           0
     15431 MEMB     133      OSM      H4S      HEL1     0.150000       1.00800           0
     15432 MEMB     133      OSM      C5S      CEL3    -0.150000       12.0110           0
     15433 MEMB     133      OSM      H5S      HEL1     0.150000       1.00800           0
     15434 MEMB     133      OSM      C6S      CTL2    -0.180000       12.0110           0
     15435 MEMB     133      OSM      H6S      HAL2     0.900000E-01   1.00800           0
     15436 MEMB     133      OSM      H6T      HAL2     0.900000E-01   1.00800           0
     15437 MEMB     133      OSM      C7S      CTL2    -0.180000       12.0110           0
     15438 MEMB     133      OSM      H7S      HAL2     0.900000E-01   1.00800           0
     15439 MEMB     133      OSM      H7T      HAL2     0.900000E-01   1.00800           0
     15440 MEMB     133      OSM      C8S      CTL2    -0.180000       12.0110           0
     15441 MEMB     133      OSM      H8S      HAL2     0.900000E-01   1.00800           0
     15442 MEMB     133      OSM      H8T      HAL2     0.900000E-01   1.00800           0
     15443 MEMB     133      OSM      C9S      CTL2    -0.180000       12.0110           0
     15444 MEMB     133      OSM      H9S      HAL2     0.900000E-01   1.00800           0
     15445 MEMB     133      OSM      H9T      HAL2     0.900000E-01   1.00800           0
     15446 MEMB     133      OSM      C10S     CTL2    -0.180000       12.0110           0
     15447 MEMB     133      OSM      H10S     HAL2     0.900000E-01   1.00800           0
     15448 MEMB     133      OSM      H10T     HAL2     0.900000E-01   1.00800           0
     15449 MEMB     133      OSM      C11S     CTL2    -0.180000       12.0110           0
     15450 MEMB     133      OSM      H11S     HAL2     0.900000E-01   1.00800           0
     15451 MEMB     133      OSM      H11T     HAL2     0.900000E-01   1.00800           0
     15452 MEMB     133      OSM      C12S     CTL2    -0.180000       12.0110           0
     15453 MEMB     133      OSM      H12S     HAL2     0.900000E-01   1.00800           0
     15454 MEMB     133      OSM      H12T     HAL2     0.900000E-01   1.00800           0
     15455 MEMB     133      OSM      C13S     CTL2    -0.180000       12.0110           0
     15456 MEMB     133      OSM      H13S     HAL2     0.900000E-01   1.00800           0
     15457 MEMB     133      OSM      H13T     HAL2     0.900000E-01   1.00800           0
     15458 MEMB     133      OSM      C14S     CTL2    -0.180000       12.0110           0
     15459 MEMB     133      OSM      H14S     HAL2     0.900000E-01   1.00800           0
     15460 MEMB     133      OSM      H14T     HAL2     0.900000E-01   1.00800           0
     15461 MEMB     133      OSM      C15S     CTL2    -0.180000       12.0110           0
     15462 MEMB     133      OSM      H15S     HAL2     0.900000E-01   1.00800           0
     15463 MEMB     133      OSM      H15T     HAL2     0.900000E-01   1.00800           0
     15464 MEMB     133      OSM      C16S     CTL2    -0.180000       12.0110           0
     15465 MEMB     133      OSM      H16S     HAL2     0.900000E-01   1.00800           0
     15466 MEMB     133      OSM      H16T     HAL2     0.900000E-01   1.00800           0
     15467 MEMB     133      OSM      C17S     CTL2    -0.180000       12.0110           0
     15468 MEMB     133      OSM      H17S     HAL2     0.900000E-01   1.00800           0
     15469 MEMB     133      OSM      H17T     HAL2     0.900000E-01   1.00800           0
     15470 MEMB     133      OSM      C18S     CTL3    -0.270000       12.0110           0
     15471 MEMB     133      OSM      H18S     HAL3     0.900000E-01   1.00800           0
     15472 MEMB     133      OSM      H18T     HAL3     0.900000E-01   1.00800           0
     15473 MEMB     133      OSM      H18U     HAL3     0.900000E-01   1.00800           0
     15474 MEMB     133      OSM      C1F      C        0.550000       12.0110           0
     15475 MEMB     133      OSM      OF       O       -0.600000       15.9994           0
     15476 MEMB     133      OSM      C2F      CTL2    -0.700000E-01   12.0110           0
     15477 MEMB     133      OSM      H2F      HAL2     0.600000E-01   1.00800           0
     15478 MEMB     133      OSM      H2G      HAL2     0.600000E-01   1.00800           0
     15479 MEMB     133      OSM      C3F      CTL2    -0.180000       12.0110           0
     15480 MEMB     133      OSM      H3F      HAL2     0.900000E-01   1.00800           0
     15481 MEMB     133      OSM      H3G      HAL2     0.900000E-01   1.00800           0
     15482 MEMB     133      OSM      C4F      CTL2    -0.180000       12.0110           0
     15483 MEMB     133      OSM      H4F      HAL2     0.900000E-01   1.00800           0
     15484 MEMB     133      OSM      H4G      HAL2     0.900000E-01   1.00800           0
     15485 MEMB     133      OSM      C5F      CTL2    -0.180000       12.0110           0
     15486 MEMB     133      OSM      H5F      HAL2     0.900000E-01   1.00800           0
     15487 MEMB     133      OSM      H5G      HAL2     0.900000E-01   1.00800           0
     15488 MEMB     133      OSM      C6F      CTL2    -0.180000       12.0110           0
     15489 MEMB     133      OSM      H6F      HAL2     0.900000E-01   1.00800           0
     15490 MEMB     133      OSM      H6G      HAL2     0.900000E-01   1.00800           0
     15491 MEMB     133      OSM      C7F      CTL2    -0.180000       12.0110           0
     15492 MEMB     133      OSM      H7F      HAL2     0.900000E-01   1.00800           0
     15493 MEMB     133      OSM      H7G      HAL2     0.900000E-01   1.00800           0
     15494 MEMB     133      OSM      C8F      CTL2    -0.180000       12.0110           0
     15495 MEMB     133      OSM      H8F      HAL2     0.900000E-01   1.00800           0
     15496 MEMB     133      OSM      H8G      HAL2     0.900000E-01   1.00800           0
     15497 MEMB     133      OSM      C9F      CEL1    -0.150000       12.0110           0
     15498 MEMB     133      OSM      H9F      HEL1     0.150000       1.00800           0
     15499 MEMB     133      OSM      C10F     CEL1    -0.150000       12.0110           0
     15500 MEMB     133      OSM      H10F     HEL1     0.150000       1.00800           0
     15501 MEMB     133      OSM      C11F     CTL2    -0.180000       12.0110           0
     15502 MEMB     133      OSM      H11F     HAL2     0.900000E-01   1.00800           0
     15503 MEMB     133      OSM      H11G     HAL2     0.900000E-01   1.00800           0
     15504 MEMB     133      OSM      C12F     CTL2    -0.180000       12.0110           0
     15505 MEMB     133      OSM      H12F     HAL2     0.900000E-01   1.00800           0
     15506 MEMB     133      OSM      H12G     HAL2     0.900000E-01   1.00800           0
     15507 MEMB     133      OSM      C13F     CTL2    -0.180000       12.0110           0
     15508 MEMB     133      OSM      H13F     HAL2     0.900000E-01   1.00800           0
     15509 MEMB     133      OSM      H13G     HAL2     0.900000E-01   1.00800           0
     15510 MEMB     133      OSM      C14F     CTL2    -0.180000       12.0110           0
     15511 MEMB     133      OSM      H14F     HAL2     0.900000E-01   1.00800           0
     15512 MEMB     133      OSM      H14G     HAL2     0.900000E-01   1.00800           0
     15513 MEMB     133      OSM      C15F     CTL2    -0.180000       12.0110           0
     15514 MEMB     133      OSM      H15F     HAL2     0.900000E-01   1.00800           0
     15515 MEMB     133      OSM      H15G     HAL2     0.900000E-01   1.00800           0
     15516 MEMB     133      OSM      C16F     CTL2    -0.180000       12.0110           0
     15517 MEMB     133      OSM      H16F     HAL2     0.900000E-01   1.00800           0
     15518 MEMB     133      OSM      H16G     HAL2     0.900000E-01   1.00800           0
     15519 MEMB     133      OSM      C17F     CTL2    -0.180000       12.0110           0
     15520 MEMB     133      OSM      H17F     HAL2     0.900000E-01   1.00800           0
     15521 MEMB     133      OSM      H17G     HAL2     0.900000E-01   1.00800           0
     15522 MEMB     133      OSM      C18F     CTL3    -0.270000       12.0110           0
     15523 MEMB     133      OSM      H18F     HAL3     0.900000E-01   1.00800           0
     15524 MEMB     133      OSM      H18G     HAL3     0.900000E-01   1.00800           0
     15525 MEMB     133      OSM      H18H     HAL3     0.900000E-01   1.00800           0
     15526 MEMB     134      OSM      N        NTL     -0.600000       14.0070           0
     15527 MEMB     134      OSM      C15      CTL5    -0.350000       12.0110           0
     15528 MEMB     134      OSM      H15A     HL       0.250000       1.00800           0
     15529 MEMB     134      OSM      H15B     HL       0.250000       1.00800           0
     15530 MEMB     134      OSM      H15C     HL       0.250000       1.00800           0
     15531 MEMB     134      OSM      C14      CTL5    -0.350000       12.0110           0
     15532 MEMB     134      OSM      H14A     HL       0.250000       1.00800           0
     15533 MEMB     134      OSM      H14B     HL       0.250000       1.00800           0
     15534 MEMB     134      OSM      H14C     HL       0.250000       1.00800           0
     15535 MEMB     134      OSM      C13      CTL5    -0.350000       12.0110           0
     15536 MEMB     134      OSM      H13A     HL       0.250000       1.00800           0
     15537 MEMB     134      OSM      H13B     HL       0.250000       1.00800           0
     15538 MEMB     134      OSM      H13C     HL       0.250000       1.00800           0
     15539 MEMB     134      OSM      C12      CTL2    -0.100000       12.0110           0
     15540 MEMB     134      OSM      H12A     HL       0.250000       1.00800           0
     15541 MEMB     134      OSM      H12B     HL       0.250000       1.00800           0
     15542 MEMB     134      OSM      C11      CTL2    -0.800000E-01   12.0110           0
     15543 MEMB     134      OSM      H11A     HAL2     0.900000E-01   1.00800           0
     15544 MEMB     134      OSM      H11B     HAL2     0.900000E-01   1.00800           0
     15545 MEMB     134      OSM      P        PL        1.50000       30.9740           0
     15546 MEMB     134      OSM      O13      O2L     -0.780000       15.9994           0
     15547 MEMB     134      OSM      O14      O2L     -0.780000       15.9994           0
     15548 MEMB     134      OSM      O11      OSLP    -0.570000       15.9994           0
     15549 MEMB     134      OSM      O12      OSLP    -0.570000       15.9994           0
     15550 MEMB     134      OSM      C1S      CTL2    -0.800000E-01   12.0110           0
     15551 MEMB     134      OSM      H1S      HAL2     0.900000E-01   1.00800           0
     15552 MEMB     134      OSM      H1T      HAL2     0.900000E-01   1.00800           0
     15553 MEMB     134      OSM      NF       NHL     -0.700000       14.0070           0
     15554 MEMB     134      OSM      HNF      H        0.350000       1.00800           0
     15555 MEMB     134      OSM      C2S      CTL1     0.300000       12.0110           0
     15556 MEMB     134      OSM      H2S      HAL1     0.500000E-01   1.00800           0
     15557 MEMB     134      OSM      C3S      CTO1     0.500000       12.0110           0
     15558 MEMB     134      OSM      H3S      HAL1    -0.110000       1.00800           0
     15559 MEMB     134      OSM      O3       OHL     -0.690000       15.9994           0
     15560 MEMB     134      OSM      HO3      HOL      0.300000       1.00800           0
     15561 MEMB     134      OSM      C4S      CEL3    -0.150000       12.0110           0
     15562 MEMB     134      OSM      H4S      HEL1     0.150000       1.00800           0
     15563 MEMB     134      OSM      C5S      CEL3    -0.150000       12.0110           0
     15564 MEMB     134      OSM      H5S      HEL1     0.150000       1.00800           0
     15565 MEMB     134      OSM      C6S      CTL2    -0.180000       12.0110           0
     15566 MEMB     134      OSM      H6S      HAL2     0.900000E-01   1.00800           0
     15567 MEMB     134      OSM      H6T      HAL2     0.900000E-01   1.00800           0
     15568 MEMB     134      OSM      C7S      CTL2    -0.180000       12.0110           0
     15569 MEMB     134      OSM      H7S      HAL2     0.900000E-01   1.00800           0
     15570 MEMB     134      OSM      H7T      HAL2     0.900000E-01   1.00800           0
     15571 MEMB     134      OSM      C8S      CTL2    -0.180000       12.0110           0
     15572 MEMB     134      OSM      H8S      HAL2     0.900000E-01   1.00800           0
     15573 MEMB     134      OSM      H8T      HAL2     0.900000E-01   1.00800           0
     15574 MEMB     134      OSM      C9S      CTL2    -0.180000       12.0110           0
     15575 MEMB     134      OSM      H9S      HAL2     0.900000E-01   1.00800           0
     15576 MEMB     134      OSM      H9T      HAL2     0.900000E-01   1.00800           0
     15577 MEMB     134      OSM      C10S     CTL2    -0.180000       12.0110           0
     15578 MEMB     134      OSM      H10S     HAL2     0.900000E-01   1.00800           0
     15579 MEMB     134      OSM      H10T     HAL2     0.900000E-01   1.00800           0
     15580 MEMB     134      OSM      C11S     CTL2    -0.180000       12.0110           0
     15581 MEMB     134      OSM      H11S     HAL2     0.900000E-01   1.00800           0
     15582 MEMB     134      OSM      H11T     HAL2     0.900000E-01   1.00800           0
     15583 MEMB     134      OSM      C12S     CTL2    -0.180000       12.0110           0
     15584 MEMB     134      OSM      H12S     HAL2     0.900000E-01   1.00800           0
     15585 MEMB     134      OSM      H12T     HAL2     0.900000E-01   1.00800           0
     15586 MEMB     134      OSM      C13S     CTL2    -0.180000       12.0110           0
     15587 MEMB     134      OSM      H13S     HAL2     0.900000E-01   1.00800           0
     15588 MEMB     134      OSM      H13T     HAL2     0.900000E-01   1.00800           0
     15589 MEMB     134      OSM      C14S     CTL2    -0.180000       12.0110           0
     15590 MEMB     134      OSM      H14S     HAL2     0.900000E-01   1.00800           0
     15591 MEMB     134      OSM      H14T     HAL2     0.900000E-01   1.00800           0
     15592 MEMB     134      OSM      C15S     CTL2    -0.180000       12.0110           0
     15593 MEMB     134      OSM      H15S     HAL2     0.900000E-01   1.00800           0
     15594 MEMB     134      OSM      H15T     HAL2     0.900000E-01   1.00800           0
     15595 MEMB     134      OSM      C16S     CTL2    -0.180000       12.0110           0
     15596 MEMB     134      OSM      H16S     HAL2     0.900000E-01   1.00800           0
     15597 MEMB     134      OSM      H16T     HAL2     0.900000E-01   1.00800           0
     15598 MEMB     134      OSM      C17S     CTL2    -0.180000       12.0110           0
     15599 MEMB     134      OSM      H17S     HAL2     0.900000E-01   1.00800           0
     15600 MEMB     134      OSM      H17T     HAL2     0.900000E-01   1.00800           0
     15601 MEMB     134      OSM      C18S     CTL3    -0.270000       12.0110           0
     15602 MEMB     134      OSM      H18S     HAL3     0.900000E-01   1.00800           0
     15603 MEMB     134      OSM      H18T     HAL3     0.900000E-01   1.00800           0
     15604 MEMB     134      OSM      H18U     HAL3     0.900000E-01   1.00800           0
     15605 MEMB     134      OSM      C1F      C        0.550000       12.0110           0
     15606 MEMB     134      OSM      OF       O       -0.600000       15.9994           0
     15607 MEMB     134      OSM      C2F      CTL2    -0.700000E-01   12.0110           0
     15608 MEMB     134      OSM      H2F      HAL2     0.600000E-01   1.00800           0
     15609 MEMB     134      OSM      H2G      HAL2     0.600000E-01   1.00800           0
     15610 MEMB     134      OSM      C3F      CTL2    -0.180000       12.0110           0
     15611 MEMB     134      OSM      H3F      HAL2     0.900000E-01   1.00800           0
     15612 MEMB     134      OSM      H3G      HAL2     0.900000E-01   1.00800           0
     15613 MEMB     134      OSM      C4F      CTL2    -0.180000       12.0110           0
     15614 MEMB     134      OSM      H4F      HAL2     0.900000E-01   1.00800           0
     15615 MEMB     134      OSM      H4G      HAL2     0.900000E-01   1.00800           0
     15616 MEMB     134      OSM      C5F      CTL2    -0.180000       12.0110           0
     15617 MEMB     134      OSM      H5F      HAL2     0.900000E-01   1.00800           0
     15618 MEMB     134      OSM      H5G      HAL2     0.900000E-01   1.00800           0
     15619 MEMB     134      OSM      C6F      CTL2    -0.180000       12.0110           0
     15620 MEMB     134      OSM      H6F      HAL2     0.900000E-01   1.00800           0
     15621 MEMB     134      OSM      H6G      HAL2     0.900000E-01   1.00800           0
     15622 MEMB     134      OSM      C7F      CTL2    -0.180000       12.0110           0
     15623 MEMB     134      OSM      H7F      HAL2     0.900000E-01   1.00800           0
     15624 MEMB     134      OSM      H7G      HAL2     0.900000E-01   1.00800           0
     15625 MEMB     134      OSM      C8F      CTL2    -0.180000       12.0110           0
     15626 MEMB     134      OSM      H8F      HAL2     0.900000E-01   1.00800           0
     15627 MEMB     134      OSM      H8G      HAL2     0.900000E-01   1.00800           0
     15628 MEMB     134      OSM      C9F      CEL1    -0.150000       12.0110           0
     15629 MEMB     134      OSM      H9F      HEL1     0.150000       1.00800           0
     15630 MEMB     134      OSM      C10F     CEL1    -0.150000       12.0110           0
     15631 MEMB     134      OSM      H10F     HEL1     0.150000       1.00800           0
     15632 MEMB     134      OSM      C11F     CTL2    -0.180000       12.0110           0
     15633 MEMB     134      OSM      H11F     HAL2     0.900000E-01   1.00800           0
     15634 MEMB     134      OSM      H11G     HAL2     0.900000E-01   1.00800           0
     15635 MEMB     134      OSM      C12F     CTL2    -0.180000       12.0110           0
     15636 MEMB     134      OSM      H12F     HAL2     0.900000E-01   1.00800           0
     15637 MEMB     134      OSM      H12G     HAL2     0.900000E-01   1.00800           0
     15638 MEMB     134      OSM      C13F     CTL2    -0.180000       12.0110           0
     15639 MEMB     134      OSM      H13F     HAL2     0.900000E-01   1.00800           0
     15640 MEMB     134      OSM      H13G     HAL2     0.900000E-01   1.00800           0
     15641 MEMB     134      OSM      C14F     CTL2    -0.180000       12.0110           0
     15642 MEMB     134      OSM      H14F     HAL2     0.900000E-01   1.00800           0
     15643 MEMB     134      OSM      H14G     HAL2     0.900000E-01   1.00800           0
     15644 MEMB     134      OSM      C15F     CTL2    -0.180000       12.0110           0
     15645 MEMB     134      OSM      H15F     HAL2     0.900000E-01   1.00800           0
     15646 MEMB     134      OSM      H15G     HAL2     0.900000E-01   1.00800           0
     15647 MEMB     134      OSM      C16F     CTL2    -0.180000       12.0110           0
     15648 MEMB     134      OSM      H16F     HAL2     0.900000E-01   1.00800           0
     15649 MEMB     134      OSM      H16G     HAL2     0.900000E-01   1.00800           0
     15650 MEMB     134      OSM      C17F     CTL2    -0.180000       12.0110           0
     15651 MEMB     134      OSM      H17F     HAL2     0.900000E-01   1.00800           0
     15652 MEMB     134      OSM      H17G     HAL2     0.900000E-01   1.00800           0
     15653 MEMB     134      OSM      C18F     CTL3    -0.270000       12.0110           0
     15654 MEMB     134      OSM      H18F     HAL3     0.900000E-01   1.00800           0
     15655 MEMB     134      OSM      H18G     HAL3     0.900000E-01   1.00800           0
     15656 MEMB     134      OSM      H18H     HAL3     0.900000E-01   1.00800           0
     15657 MEMB     135      SLPC     N        NTL     -0.600000       14.0070           0
     15658 MEMB     135      SLPC     C13      CTL5    -0.350000       12.0110           0
     15659 MEMB     135      SLPC     H13A     HL       0.250000       1.00800           0
     15660 MEMB     135      SLPC     H13B     HL       0.250000       1.00800           0
     15661 MEMB     135      SLPC     H13C     HL       0.250000       1.00800           0
     15662 MEMB     135      SLPC     C14      CTL5    -0.350000       12.0110           0
     15663 MEMB     135      SLPC     H14A     HL       0.250000       1.00800           0
     15664 MEMB     135      SLPC     H14B     HL       0.250000       1.00800           0
     15665 MEMB     135      SLPC     H14C     HL       0.250000       1.00800           0
     15666 MEMB     135      SLPC     C15      CTL5    -0.350000       12.0110           0
     15667 MEMB     135      SLPC     H15A     HL       0.250000       1.00800           0
     15668 MEMB     135      SLPC     H15B     HL       0.250000       1.00800           0
     15669 MEMB     135      SLPC     H15C     HL       0.250000       1.00800           0
     15670 MEMB     135      SLPC     C12      CTL2    -0.100000       12.0110           0
     15671 MEMB     135      SLPC     H12A     HL       0.250000       1.00800           0
     15672 MEMB     135      SLPC     H12B     HL       0.250000       1.00800           0
     15673 MEMB     135      SLPC     C11      CTL2    -0.800000E-01   12.0110           0
     15674 MEMB     135      SLPC     H11A     HAL2     0.900000E-01   1.00800           0
     15675 MEMB     135      SLPC     H11B     HAL2     0.900000E-01   1.00800           0
     15676 MEMB     135      SLPC     P        PL        1.50000       30.9740           0
     15677 MEMB     135      SLPC     O13      O2L     -0.780000       15.9994           0
     15678 MEMB     135      SLPC     O14      O2L     -0.780000       15.9994           0
     15679 MEMB     135      SLPC     O12      OSLP    -0.570000       15.9994           0
     15680 MEMB     135      SLPC     O11      OSLP    -0.570000       15.9994           0
     15681 MEMB     135      SLPC     C1       CTL2    -0.800000E-01   12.0110           0
     15682 MEMB     135      SLPC     HA       HAL2     0.900000E-01   1.00800           0
     15683 MEMB     135      SLPC     HB       HAL2     0.900000E-01   1.00800           0
     15684 MEMB     135      SLPC     C2       CTL1     0.170000       12.0110           0
     15685 MEMB     135      SLPC     HS       HAL1     0.900000E-01   1.00800           0
     15686 MEMB     135      SLPC     O21      OSL     -0.490000       15.9994           0
     15687 MEMB     135      SLPC     C21      CL       0.900000       12.0110           0
     15688 MEMB     135      SLPC     O22      OBL     -0.630000       15.9994           0
     15689 MEMB     135      SLPC     C22      CTL2    -0.220000       12.0110           0
     15690 MEMB     135      SLPC     H2R      HAL2     0.900000E-01   1.00800           0
     15691 MEMB     135      SLPC     H2S      HAL2     0.900000E-01   1.00800           0
     15692 MEMB     135      SLPC     C3       CTL2     0.800000E-01   12.0110           0
     15693 MEMB     135      SLPC     HX       HAL2     0.900000E-01   1.00800           0
     15694 MEMB     135      SLPC     HY       HAL2     0.900000E-01   1.00800           0
     15695 MEMB     135      SLPC     O31      OSL     -0.490000       15.9994           0
     15696 MEMB     135      SLPC     C31      CL       0.900000       12.0110           0
     15697 MEMB     135      SLPC     O32      OBL     -0.630000       15.9994           0
     15698 MEMB     135      SLPC     C32      CTL2    -0.220000       12.0110           0
     15699 MEMB     135      SLPC     H2X      HAL2     0.900000E-01   1.00800           0
     15700 MEMB     135      SLPC     H2Y      HAL2     0.900000E-01   1.00800           0
     15701 MEMB     135      SLPC     C23      CTL2    -0.180000       12.0110           0
     15702 MEMB     135      SLPC     H3R      HAL2     0.900000E-01   1.00800           0
     15703 MEMB     135      SLPC     H3S      HAL2     0.900000E-01   1.00800           0
     15704 MEMB     135      SLPC     C24      CTL2    -0.180000       12.0110           0
     15705 MEMB     135      SLPC     H4R      HAL2     0.900000E-01   1.00800           0
     15706 MEMB     135      SLPC     H4S      HAL2     0.900000E-01   1.00800           0
     15707 MEMB     135      SLPC     C25      CTL2    -0.180000       12.0110           0
     15708 MEMB     135      SLPC     H5R      HAL2     0.900000E-01   1.00800           0
     15709 MEMB     135      SLPC     H5S      HAL2     0.900000E-01   1.00800           0
     15710 MEMB     135      SLPC     C26      CTL2    -0.180000       12.0110           0
     15711 MEMB     135      SLPC     H6R      HAL2     0.900000E-01   1.00800           0
     15712 MEMB     135      SLPC     H6S      HAL2     0.900000E-01   1.00800           0
     15713 MEMB     135      SLPC     C27      CTL2    -0.180000       12.0110           0
     15714 MEMB     135      SLPC     H7R      HAL2     0.900000E-01   1.00800           0
     15715 MEMB     135      SLPC     H7S      HAL2     0.900000E-01   1.00800           0
     15716 MEMB     135      SLPC     C28      CTL2    -0.180000       12.0110           0
     15717 MEMB     135      SLPC     H8R      HAL2     0.900000E-01   1.00800           0
     15718 MEMB     135      SLPC     H8S      HAL2     0.900000E-01   1.00800           0
     15719 MEMB     135      SLPC     C29      CEL1    -0.150000       12.0110           0
     15720 MEMB     135      SLPC     H9R      HEL1     0.150000       1.00800           0
     15721 MEMB     135      SLPC     C210     CEL1    -0.150000       12.0110           0
     15722 MEMB     135      SLPC     H10R     HEL1     0.150000       1.00800           0
     15723 MEMB     135      SLPC     C211     CTL2    -0.180000       12.0110           0
     15724 MEMB     135      SLPC     H11R     HAL2     0.900000E-01   1.00800           0
     15725 MEMB     135      SLPC     H11S     HAL2     0.900000E-01   1.00800           0
     15726 MEMB     135      SLPC     C212     CEL1    -0.150000       12.0110           0
     15727 MEMB     135      SLPC     H12R     HEL1     0.150000       1.00800           0
     15728 MEMB     135      SLPC     C213     CEL1    -0.150000       12.0110           0
     15729 MEMB     135      SLPC     H13R     HEL1     0.150000       1.00800           0
     15730 MEMB     135      SLPC     C214     CTL2    -0.180000       12.0110           0
     15731 MEMB     135      SLPC     H14R     HAL2     0.900000E-01   1.00800           0
     15732 MEMB     135      SLPC     H14S     HAL2     0.900000E-01   1.00800           0
     15733 MEMB     135      SLPC     C215     CTL2    -0.180000       12.0110           0
     15734 MEMB     135      SLPC     H15R     HAL2     0.900000E-01   1.00800           0
     15735 MEMB     135      SLPC     H15S     HAL2     0.900000E-01   1.00800           0
     15736 MEMB     135      SLPC     C216     CTL2    -0.180000       12.0110           0
     15737 MEMB     135      SLPC     H16R     HAL2     0.900000E-01   1.00800           0
     15738 MEMB     135      SLPC     H16S     HAL2     0.900000E-01   1.00800           0
     15739 MEMB     135      SLPC     C217     CTL2    -0.180000       12.0110           0
     15740 MEMB     135      SLPC     H17R     HAL2     0.900000E-01   1.00800           0
     15741 MEMB     135      SLPC     H17S     HAL2     0.900000E-01   1.00800           0
     15742 MEMB     135      SLPC     C218     CTL3    -0.270000       12.0110           0
     15743 MEMB     135      SLPC     H18R     HAL3     0.900000E-01   1.00800           0
     15744 MEMB     135      SLPC     H18S     HAL3     0.900000E-01   1.00800           0
     15745 MEMB     135      SLPC     H18T     HAL3     0.900000E-01   1.00800           0
     15746 MEMB     135      SLPC     C33      CTL2    -0.180000       12.0110           0
     15747 MEMB     135      SLPC     H3X      HAL2     0.900000E-01   1.00800           0
     15748 MEMB     135      SLPC     H3Y      HAL2     0.900000E-01   1.00800           0
     15749 MEMB     135      SLPC     C34      CTL2    -0.180000       12.0110           0
     15750 MEMB     135      SLPC     H4X      HAL2     0.900000E-01   1.00800           0
     15751 MEMB     135      SLPC     H4Y      HAL2     0.900000E-01   1.00800           0
     15752 MEMB     135      SLPC     C35      CTL2    -0.180000       12.0110           0
     15753 MEMB     135      SLPC     H5X      HAL2     0.900000E-01   1.00800           0
     15754 MEMB     135      SLPC     H5Y      HAL2     0.900000E-01   1.00800           0
     15755 MEMB     135      SLPC     C36      CTL2    -0.180000       12.0110           0
     15756 MEMB     135      SLPC     H6X      HAL2     0.900000E-01   1.00800           0
     15757 MEMB     135      SLPC     H6Y      HAL2     0.900000E-01   1.00800           0
     15758 MEMB     135      SLPC     C37      CTL2    -0.180000       12.0110           0
     15759 MEMB     135      SLPC     H7X      HAL2     0.900000E-01   1.00800           0
     15760 MEMB     135      SLPC     H7Y      HAL2     0.900000E-01   1.00800           0
     15761 MEMB     135      SLPC     C38      CTL2    -0.180000       12.0110           0
     15762 MEMB     135      SLPC     H8X      HAL2     0.900000E-01   1.00800           0
     15763 MEMB     135      SLPC     H8Y      HAL2     0.900000E-01   1.00800           0
     15764 MEMB     135      SLPC     C39      CTL2    -0.180000       12.0110           0
     15765 MEMB     135      SLPC     H9X      HAL2     0.900000E-01   1.00800           0
     15766 MEMB     135      SLPC     H9Y      HAL2     0.900000E-01   1.00800           0
     15767 MEMB     135      SLPC     C310     CTL2    -0.180000       12.0110           0
     15768 MEMB     135      SLPC     H10X     HAL2     0.900000E-01   1.00800           0
     15769 MEMB     135      SLPC     H10Y     HAL2     0.900000E-01   1.00800           0
     15770 MEMB     135      SLPC     C311     CTL2    -0.180000       12.0110           0
     15771 MEMB     135      SLPC     H11X     HAL2     0.900000E-01   1.00800           0
     15772 MEMB     135      SLPC     H11Y     HAL2     0.900000E-01   1.00800           0
     15773 MEMB     135      SLPC     C312     CTL2    -0.180000       12.0110           0
     15774 MEMB     135      SLPC     H12X     HAL2     0.900000E-01   1.00800           0
     15775 MEMB     135      SLPC     H12Y     HAL2     0.900000E-01   1.00800           0
     15776 MEMB     135      SLPC     C313     CTL2    -0.180000       12.0110           0
     15777 MEMB     135      SLPC     H13X     HAL2     0.900000E-01   1.00800           0
     15778 MEMB     135      SLPC     H13Y     HAL2     0.900000E-01   1.00800           0
     15779 MEMB     135      SLPC     C314     CTL2    -0.180000       12.0110           0
     15780 MEMB     135      SLPC     H14X     HAL2     0.900000E-01   1.00800           0
     15781 MEMB     135      SLPC     H14Y     HAL2     0.900000E-01   1.00800           0
     15782 MEMB     135      SLPC     C315     CTL2    -0.180000       12.0110           0
     15783 MEMB     135      SLPC     H15X     HAL2     0.900000E-01   1.00800           0
     15784 MEMB     135      SLPC     H15Y     HAL2     0.900000E-01   1.00800           0
     15785 MEMB     135      SLPC     C316     CTL2    -0.180000       12.0110           0
     15786 MEMB     135      SLPC     H16X     HAL2     0.900000E-01   1.00800           0
     15787 MEMB     135      SLPC     H16Y     HAL2     0.900000E-01   1.00800           0
     15788 MEMB     135      SLPC     C317     CTL2    -0.180000       12.0110           0
     15789 MEMB     135      SLPC     H17X     HAL2     0.900000E-01   1.00800           0
     15790 MEMB     135      SLPC     H17Y     HAL2     0.900000E-01   1.00800           0
     15791 MEMB     135      SLPC     C318     CTL3    -0.270000       12.0110           0
     15792 MEMB     135      SLPC     H18X     HAL3     0.900000E-01   1.00800           0
     15793 MEMB     135      SLPC     H18Y     HAL3     0.900000E-01   1.00800           0
     15794 MEMB     135      SLPC     H18Z     HAL3     0.900000E-01   1.00800           0
     15795 MEMB     136      OSM      N        NTL     -0.600000       14.0070           0
     15796 MEMB     136      OSM      C15      CTL5    -0.350000       12.0110           0
     15797 MEMB     136      OSM      H15A     HL       0.250000       1.00800           0
     15798 MEMB     136      OSM      H15B     HL       0.250000       1.00800           0
     15799 MEMB     136      OSM      H15C     HL       0.250000       1.00800           0
     15800 MEMB     136      OSM      C14      CTL5    -0.350000       12.0110           0
     15801 MEMB     136      OSM      H14A     HL       0.250000       1.00800           0
     15802 MEMB     136      OSM      H14B     HL       0.250000       1.00800           0
     15803 MEMB     136      OSM      H14C     HL       0.250000       1.00800           0
     15804 MEMB     136      OSM      C13      CTL5    -0.350000       12.0110           0
     15805 MEMB     136      OSM      H13A     HL       0.250000       1.00800           0
     15806 MEMB     136      OSM      H13B     HL       0.250000       1.00800           0
     15807 MEMB     136      OSM      H13C     HL       0.250000       1.00800           0
     15808 MEMB     136      OSM      C12      CTL2    -0.100000       12.0110           0
     15809 MEMB     136      OSM      H12A     HL       0.250000       1.00800           0
     15810 MEMB     136      OSM      H12B     HL       0.250000       1.00800           0
     15811 MEMB     136      OSM      C11      CTL2    -0.800000E-01   12.0110           0
     15812 MEMB     136      OSM      H11A     HAL2     0.900000E-01   1.00800           0
     15813 MEMB     136      OSM      H11B     HAL2     0.900000E-01   1.00800           0
     15814 MEMB     136      OSM      P        PL        1.50000       30.9740           0
     15815 MEMB     136      OSM      O13      O2L     -0.780000       15.9994           0
     15816 MEMB     136      OSM      O14      O2L     -0.780000       15.9994           0
     15817 MEMB     136      OSM      O11      OSLP    -0.570000       15.9994           0
     15818 MEMB     136      OSM      O12      OSLP    -0.570000       15.9994           0
     15819 MEMB     136      OSM      C1S      CTL2    -0.800000E-01   12.0110           0
     15820 MEMB     136      OSM      H1S      HAL2     0.900000E-01   1.00800           0
     15821 MEMB     136      OSM      H1T      HAL2     0.900000E-01   1.00800           0
     15822 MEMB     136      OSM      NF       NHL     -0.700000       14.0070           0
     15823 MEMB     136      OSM      HNF      H        0.350000       1.00800           0
     15824 MEMB     136      OSM      C2S      CTL1     0.300000       12.0110           0
     15825 MEMB     136      OSM      H2S      HAL1     0.500000E-01   1.00800           0
     15826 MEMB     136      OSM      C3S      CTO1     0.500000       12.0110           0
     15827 MEMB     136      OSM      H3S      HAL1    -0.110000       1.00800           0
     15828 MEMB     136      OSM      O3       OHL     -0.690000       15.9994           0
     15829 MEMB     136      OSM      HO3      HOL      0.300000       1.00800           0
     15830 MEMB     136      OSM      C4S      CEL3    -0.150000       12.0110           0
     15831 MEMB     136      OSM      H4S      HEL1     0.150000       1.00800           0
     15832 MEMB     136      OSM      C5S      CEL3    -0.150000       12.0110           0
     15833 MEMB     136      OSM      H5S      HEL1     0.150000       1.00800           0
     15834 MEMB     136      OSM      C6S      CTL2    -0.180000       12.0110           0
     15835 MEMB     136      OSM      H6S      HAL2     0.900000E-01   1.00800           0
     15836 MEMB     136      OSM      H6T      HAL2     0.900000E-01   1.00800           0
     15837 MEMB     136      OSM      C7S      CTL2    -0.180000       12.0110           0
     15838 MEMB     136      OSM      H7S      HAL2     0.900000E-01   1.00800           0
     15839 MEMB     136      OSM      H7T      HAL2     0.900000E-01   1.00800           0
     15840 MEMB     136      OSM      C8S      CTL2    -0.180000       12.0110           0
     15841 MEMB     136      OSM      H8S      HAL2     0.900000E-01   1.00800           0
     15842 MEMB     136      OSM      H8T      HAL2     0.900000E-01   1.00800           0
     15843 MEMB     136      OSM      C9S      CTL2    -0.180000       12.0110           0
     15844 MEMB     136      OSM      H9S      HAL2     0.900000E-01   1.00800           0
     15845 MEMB     136      OSM      H9T      HAL2     0.900000E-01   1.00800           0
     15846 MEMB     136      OSM      C10S     CTL2    -0.180000       12.0110           0
     15847 MEMB     136      OSM      H10S     HAL2     0.900000E-01   1.00800           0
     15848 MEMB     136      OSM      H10T     HAL2     0.900000E-01   1.00800           0
     15849 MEMB     136      OSM      C11S     CTL2    -0.180000       12.0110           0
     15850 MEMB     136      OSM      H11S     HAL2     0.900000E-01   1.00800           0
     15851 MEMB     136      OSM      H11T     HAL2     0.900000E-01   1.00800           0
     15852 MEMB     136      OSM      C12S     CTL2    -0.180000       12.0110           0
     15853 MEMB     136      OSM      H12S     HAL2     0.900000E-01   1.00800           0
     15854 MEMB     136      OSM      H12T     HAL2     0.900000E-01   1.00800           0
     15855 MEMB     136      OSM      C13S     CTL2    -0.180000       12.0110           0
     15856 MEMB     136      OSM      H13S     HAL2     0.900000E-01   1.00800           0
     15857 MEMB     136      OSM      H13T     HAL2     0.900000E-01   1.00800           0
     15858 MEMB     136      OSM      C14S     CTL2    -0.180000       12.0110           0
     15859 MEMB     136      OSM      H14S     HAL2     0.900000E-01   1.00800           0
     15860 MEMB     136      OSM      H14T     HAL2     0.900000E-01   1.00800           0
     15861 MEMB     136      OSM      C15S     CTL2    -0.180000       12.0110           0
     15862 MEMB     136      OSM      H15S     HAL2     0.900000E-01   1.00800           0
     15863 MEMB     136      OSM      H15T     HAL2     0.900000E-01   1.00800           0
     15864 MEMB     136      OSM      C16S     CTL2    -0.180000       12.0110           0
     15865 MEMB     136      OSM      H16S     HAL2     0.900000E-01   1.00800           0
     15866 MEMB     136      OSM      H16T     HAL2     0.900000E-01   1.00800           0
     15867 MEMB     136      OSM      C17S     CTL2    -0.180000       12.0110           0
     15868 MEMB     136      OSM      H17S     HAL2     0.900000E-01   1.00800           0
     15869 MEMB     136      OSM      H17T     HAL2     0.900000E-01   1.00800           0
     15870 MEMB     136      OSM      C18S     CTL3    -0.270000       12.0110           0
     15871 MEMB     136      OSM      H18S     HAL3     0.900000E-01   1.00800           0
     15872 MEMB     136      OSM      H18T     HAL3     0.900000E-01   1.00800           0
     15873 MEMB     136      OSM      H18U     HAL3     0.900000E-01   1.00800           0
     15874 MEMB     136      OSM      C1F      C        0.550000       12.0110           0
     15875 MEMB     136      OSM      OF       O       -0.600000       15.9994           0
     15876 MEMB     136      OSM      C2F      CTL2    -0.700000E-01   12.0110           0
     15877 MEMB     136      OSM      H2F      HAL2     0.600000E-01   1.00800           0
     15878 MEMB     136      OSM      H2G      HAL2     0.600000E-01   1.00800           0
     15879 MEMB     136      OSM      C3F      CTL2    -0.180000       12.0110           0
     15880 MEMB     136      OSM      H3F      HAL2     0.900000E-01   1.00800           0
     15881 MEMB     136      OSM      H3G      HAL2     0.900000E-01   1.00800           0
     15882 MEMB     136      OSM      C4F      CTL2    -0.180000       12.0110           0
     15883 MEMB     136      OSM      H4F      HAL2     0.900000E-01   1.00800           0
     15884 MEMB     136      OSM      H4G      HAL2     0.900000E-01   1.00800           0
     15885 MEMB     136      OSM      C5F      CTL2    -0.180000       12.0110           0
     15886 MEMB     136      OSM      H5F      HAL2     0.900000E-01   1.00800           0
     15887 MEMB     136      OSM      H5G      HAL2     0.900000E-01   1.00800           0
     15888 MEMB     136      OSM      C6F      CTL2    -0.180000       12.0110           0
     15889 MEMB     136      OSM      H6F      HAL2     0.900000E-01   1.00800           0
     15890 MEMB     136      OSM      H6G      HAL2     0.900000E-01   1.00800           0
     15891 MEMB     136      OSM      C7F      CTL2    -0.180000       12.0110           0
     15892 MEMB     136      OSM      H7F      HAL2     0.900000E-01   1.00800           0
     15893 MEMB     136      OSM      H7G      HAL2     0.900000E-01   1.00800           0
     15894 MEMB     136      OSM      C8F      CTL2    -0.180000       12.0110           0
     15895 MEMB     136      OSM      H8F      HAL2     0.900000E-01   1.00800           0
     15896 MEMB     136      OSM      H8G      HAL2     0.900000E-01   1.00800           0
     15897 MEMB     136      OSM      C9F      CEL1    -0.150000       12.0110           0
     15898 MEMB     136      OSM      H9F      HEL1     0.150000       1.00800           0
     15899 MEMB     136      OSM      C10F     CEL1    -0.150000       12.0110           0
     15900 MEMB     136      OSM      H10F     HEL1     0.150000       1.00800           0
     15901 MEMB     136      OSM      C11F     CTL2    -0.180000       12.0110           0
     15902 MEMB     136      OSM      H11F     HAL2     0.900000E-01   1.00800           0
     15903 MEMB     136      OSM      H11G     HAL2     0.900000E-01   1.00800           0
     15904 MEMB     136      OSM      C12F     CTL2    -0.180000       12.0110           0
     15905 MEMB     136      OSM      H12F     HAL2     0.900000E-01   1.00800           0
     15906 MEMB     136      OSM      H12G     HAL2     0.900000E-01   1.00800           0
     15907 MEMB     136      OSM      C13F     CTL2    -0.180000       12.0110           0
     15908 MEMB     136      OSM      H13F     HAL2     0.900000E-01   1.00800           0
     15909 MEMB     136      OSM      H13G     HAL2     0.900000E-01   1.00800           0
     15910 MEMB     136      OSM      C14F     CTL2    -0.180000       12.0110           0
     15911 MEMB     136      OSM      H14F     HAL2     0.900000E-01   1.00800           0
     15912 MEMB     136      OSM      H14G     HAL2     0.900000E-01   1.00800           0
     15913 MEMB     136      OSM      C15F     CTL2    -0.180000       12.0110           0
     15914 MEMB     136      OSM      H15F     HAL2     0.900000E-01   1.00800           0
     15915 MEMB     136      OSM      H15G     HAL2     0.900000E-01   1.00800           0
     15916 MEMB     136      OSM      C16F     CTL2    -0.180000       12.0110           0
     15917 MEMB     136      OSM      H16F     HAL2     0.900000E-01   1.00800           0
     15918 MEMB     136      OSM      H16G     HAL2     0.900000E-01   1.00800           0
     15919 MEMB     136      OSM      C17F     CTL2    -0.180000       12.0110           0
     15920 MEMB     136      OSM      H17F     HAL2     0.900000E-01   1.00800           0
     15921 MEMB     136      OSM      H17G     HAL2     0.900000E-01   1.00800           0
     15922 MEMB     136      OSM      C18F     CTL3    -0.270000       12.0110           0
     15923 MEMB     136      OSM      H18F     HAL3     0.900000E-01   1.00800           0
     15924 MEMB     136      OSM      H18G     HAL3     0.900000E-01   1.00800           0
     15925 MEMB     136      OSM      H18H     HAL3     0.900000E-01   1.00800           0
     15926 MEMB     137      OSM      N        NTL     -0.600000       14.0070           0
     15927 MEMB     137      OSM      C15      CTL5    -0.350000       12.0110           0
     15928 MEMB     137      OSM      H15A     HL       0.250000       1.00800           0
     15929 MEMB     137      OSM      H15B     HL       0.250000       1.00800           0
     15930 MEMB     137      OSM      H15C     HL       0.250000       1.00800           0
     15931 MEMB     137      OSM      C14      CTL5    -0.350000       12.0110           0
     15932 MEMB     137      OSM      H14A     HL       0.250000       1.00800           0
     15933 MEMB     137      OSM      H14B     HL       0.250000       1.00800           0
     15934 MEMB     137      OSM      H14C     HL       0.250000       1.00800           0
     15935 MEMB     137      OSM      C13      CTL5    -0.350000       12.0110           0
     15936 MEMB     137      OSM      H13A     HL       0.250000       1.00800           0
     15937 MEMB     137      OSM      H13B     HL       0.250000       1.00800           0
     15938 MEMB     137      OSM      H13C     HL       0.250000       1.00800           0
     15939 MEMB     137      OSM      C12      CTL2    -0.100000       12.0110           0
     15940 MEMB     137      OSM      H12A     HL       0.250000       1.00800           0
     15941 MEMB     137      OSM      H12B     HL       0.250000       1.00800           0
     15942 MEMB     137      OSM      C11      CTL2    -0.800000E-01   12.0110           0
     15943 MEMB     137      OSM      H11A     HAL2     0.900000E-01   1.00800           0
     15944 MEMB     137      OSM      H11B     HAL2     0.900000E-01   1.00800           0
     15945 MEMB     137      OSM      P        PL        1.50000       30.9740           0
     15946 MEMB     137      OSM      O13      O2L     -0.780000       15.9994           0
     15947 MEMB     137      OSM      O14      O2L     -0.780000       15.9994           0
     15948 MEMB     137      OSM      O11      OSLP    -0.570000       15.9994           0
     15949 MEMB     137      OSM      O12      OSLP    -0.570000       15.9994           0
     15950 MEMB     137      OSM      C1S      CTL2    -0.800000E-01   12.0110           0
     15951 MEMB     137      OSM      H1S      HAL2     0.900000E-01   1.00800           0
     15952 MEMB     137      OSM      H1T      HAL2     0.900000E-01   1.00800           0
     15953 MEMB     137      OSM      NF       NHL     -0.700000       14.0070           0
     15954 MEMB     137      OSM      HNF      H        0.350000       1.00800           0
     15955 MEMB     137      OSM      C2S      CTL1     0.300000       12.0110           0
     15956 MEMB     137      OSM      H2S      HAL1     0.500000E-01   1.00800           0
     15957 MEMB     137      OSM      C3S      CTO1     0.500000       12.0110           0
     15958 MEMB     137      OSM      H3S      HAL1    -0.110000       1.00800           0
     15959 MEMB     137      OSM      O3       OHL     -0.690000       15.9994           0
     15960 MEMB     137      OSM      HO3      HOL      0.300000       1.00800           0
     15961 MEMB     137      OSM      C4S      CEL3    -0.150000       12.0110           0
     15962 MEMB     137      OSM      H4S      HEL1     0.150000       1.00800           0
     15963 MEMB     137      OSM      C5S      CEL3    -0.150000       12.0110           0
     15964 MEMB     137      OSM      H5S      HEL1     0.150000       1.00800           0
     15965 MEMB     137      OSM      C6S      CTL2    -0.180000       12.0110           0
     15966 MEMB     137      OSM      H6S      HAL2     0.900000E-01   1.00800           0
     15967 MEMB     137      OSM      H6T      HAL2     0.900000E-01   1.00800           0
     15968 MEMB     137      OSM      C7S      CTL2    -0.180000       12.0110           0
     15969 MEMB     137      OSM      H7S      HAL2     0.900000E-01   1.00800           0
     15970 MEMB     137      OSM      H7T      HAL2     0.900000E-01   1.00800           0
     15971 MEMB     137      OSM      C8S      CTL2    -0.180000       12.0110           0
     15972 MEMB     137      OSM      H8S      HAL2     0.900000E-01   1.00800           0
     15973 MEMB     137      OSM      H8T      HAL2     0.900000E-01   1.00800           0
     15974 MEMB     137      OSM      C9S      CTL2    -0.180000       12.0110           0
     15975 MEMB     137      OSM      H9S      HAL2     0.900000E-01   1.00800           0
     15976 MEMB     137      OSM      H9T      HAL2     0.900000E-01   1.00800           0
     15977 MEMB     137      OSM      C10S     CTL2    -0.180000       12.0110           0
     15978 MEMB     137      OSM      H10S     HAL2     0.900000E-01   1.00800           0
     15979 MEMB     137      OSM      H10T     HAL2     0.900000E-01   1.00800           0
     15980 MEMB     137      OSM      C11S     CTL2    -0.180000       12.0110           0
     15981 MEMB     137      OSM      H11S     HAL2     0.900000E-01   1.00800           0
     15982 MEMB     137      OSM      H11T     HAL2     0.900000E-01   1.00800           0
     15983 MEMB     137      OSM      C12S     CTL2    -0.180000       12.0110           0
     15984 MEMB     137      OSM      H12S     HAL2     0.900000E-01   1.00800           0
     15985 MEMB     137      OSM      H12T     HAL2     0.900000E-01   1.00800           0
     15986 MEMB     137      OSM      C13S     CTL2    -0.180000       12.0110           0
     15987 MEMB     137      OSM      H13S     HAL2     0.900000E-01   1.00800           0
     15988 MEMB     137      OSM      H13T     HAL2     0.900000E-01   1.00800           0
     15989 MEMB     137      OSM      C14S     CTL2    -0.180000       12.0110           0
     15990 MEMB     137      OSM      H14S     HAL2     0.900000E-01   1.00800           0
     15991 MEMB     137      OSM      H14T     HAL2     0.900000E-01   1.00800           0
     15992 MEMB     137      OSM      C15S     CTL2    -0.180000       12.0110           0
     15993 MEMB     137      OSM      H15S     HAL2     0.900000E-01   1.00800           0
     15994 MEMB     137      OSM      H15T     HAL2     0.900000E-01   1.00800           0
     15995 MEMB     137      OSM      C16S     CTL2    -0.180000       12.0110           0
     15996 MEMB     137      OSM      H16S     HAL2     0.900000E-01   1.00800           0
     15997 MEMB     137      OSM      H16T     HAL2     0.900000E-01   1.00800           0
     15998 MEMB     137      OSM      C17S     CTL2    -0.180000       12.0110           0
     15999 MEMB     137      OSM      H17S     HAL2     0.900000E-01   1.00800           0
     16000 MEMB     137      OSM      H17T     HAL2     0.900000E-01   1.00800           0
     16001 MEMB     137      OSM      C18S     CTL3    -0.270000       12.0110           0
     16002 MEMB     137      OSM      H18S     HAL3     0.900000E-01   1.00800           0
     16003 MEMB     137      OSM      H18T     HAL3     0.900000E-01   1.00800           0
     16004 MEMB     137      OSM      H18U     HAL3     0.900000E-01   1.00800           0
     16005 MEMB     137      OSM      C1F      C        0.550000       12.0110           0
     16006 MEMB     137      OSM      OF       O       -0.600000       15.9994           0
     16007 MEMB     137      OSM      C2F      CTL2    -0.700000E-01   12.0110           0
     16008 MEMB     137      OSM      H2F      HAL2     0.600000E-01   1.00800           0
     16009 MEMB     137      OSM      H2G      HAL2     0.600000E-01   1.00800           0
     16010 MEMB     137      OSM      C3F      CTL2    -0.180000       12.0110           0
     16011 MEMB     137      OSM      H3F      HAL2     0.900000E-01   1.00800           0
     16012 MEMB     137      OSM      H3G      HAL2     0.900000E-01   1.00800           0
     16013 MEMB     137      OSM      C4F      CTL2    -0.180000       12.0110           0
     16014 MEMB     137      OSM      H4F      HAL2     0.900000E-01   1.00800           0
     16015 MEMB     137      OSM      H4G      HAL2     0.900000E-01   1.00800           0
     16016 MEMB     137      OSM      C5F      CTL2    -0.180000       12.0110           0
     16017 MEMB     137      OSM      H5F      HAL2     0.900000E-01   1.00800           0
     16018 MEMB     137      OSM      H5G      HAL2     0.900000E-01   1.00800           0
     16019 MEMB     137      OSM      C6F      CTL2    -0.180000       12.0110           0
     16020 MEMB     137      OSM      H6F      HAL2     0.900000E-01   1.00800           0
     16021 MEMB     137      OSM      H6G      HAL2     0.900000E-01   1.00800           0
     16022 MEMB     137      OSM      C7F      CTL2    -0.180000       12.0110           0
     16023 MEMB     137      OSM      H7F      HAL2     0.900000E-01   1.00800           0
     16024 MEMB     137      OSM      H7G      HAL2     0.900000E-01   1.00800           0
     16025 MEMB     137      OSM      C8F      CTL2    -0.180000       12.0110           0
     16026 MEMB     137      OSM      H8F      HAL2     0.900000E-01   1.00800           0
     16027 MEMB     137      OSM      H8G      HAL2     0.900000E-01   1.00800           0
     16028 MEMB     137      OSM      C9F      CEL1    -0.150000       12.0110           0
     16029 MEMB     137      OSM      H9F      HEL1     0.150000       1.00800           0
     16030 MEMB     137      OSM      C10F     CEL1    -0.150000       12.0110           0
     16031 MEMB     137      OSM      H10F     HEL1     0.150000       1.00800           0
     16032 MEMB     137      OSM      C11F     CTL2    -0.180000       12.0110           0
     16033 MEMB     137      OSM      H11F     HAL2     0.900000E-01   1.00800           0
     16034 MEMB     137      OSM      H11G     HAL2     0.900000E-01   1.00800           0
     16035 MEMB     137      OSM      C12F     CTL2    -0.180000       12.0110           0
     16036 MEMB     137      OSM      H12F     HAL2     0.900000E-01   1.00800           0
     16037 MEMB     137      OSM      H12G     HAL2     0.900000E-01   1.00800           0
     16038 MEMB     137      OSM      C13F     CTL2    -0.180000       12.0110           0
     16039 MEMB     137      OSM      H13F     HAL2     0.900000E-01   1.00800           0
     16040 MEMB     137      OSM      H13G     HAL2     0.900000E-01   1.00800           0
     16041 MEMB     137      OSM      C14F     CTL2    -0.180000       12.0110           0
     16042 MEMB     137      OSM      H14F     HAL2     0.900000E-01   1.00800           0
     16043 MEMB     137      OSM      H14G     HAL2     0.900000E-01   1.00800           0
     16044 MEMB     137      OSM      C15F     CTL2    -0.180000       12.0110           0
     16045 MEMB     137      OSM      H15F     HAL2     0.900000E-01   1.00800           0
     16046 MEMB     137      OSM      H15G     HAL2     0.900000E-01   1.00800           0
     16047 MEMB     137      OSM      C16F     CTL2    -0.180000       12.0110           0
     16048 MEMB     137      OSM      H16F     HAL2     0.900000E-01   1.00800           0
     16049 MEMB     137      OSM      H16G     HAL2     0.900000E-01   1.00800           0
     16050 MEMB     137      OSM      C17F     CTL2    -0.180000       12.0110           0
     16051 MEMB     137      OSM      H17F     HAL2     0.900000E-01   1.00800           0
     16052 MEMB     137      OSM      H17G     HAL2     0.900000E-01   1.00800           0
     16053 MEMB     137      OSM      C18F     CTL3    -0.270000       12.0110           0
     16054 MEMB     137      OSM      H18F     HAL3     0.900000E-01   1.00800           0
     16055 MEMB     137      OSM      H18G     HAL3     0.900000E-01   1.00800           0
     16056 MEMB     137      OSM      H18H     HAL3     0.900000E-01   1.00800           0
     16057 MEMB     138      SAPS     N        NH3L    -0.300000       14.0070           0
     16058 MEMB     138      SAPS     HN1      HCL      0.330000       1.00800           0
     16059 MEMB     138      SAPS     HN2      HCL      0.330000       1.00800           0
     16060 MEMB     138      SAPS     HN3      HCL      0.330000       1.00800           0
     16061 MEMB     138      SAPS     C12      CTL1     0.210000       12.0110           0
     16062 MEMB     138      SAPS     H12A     HBL      0.100000       1.00800           0
     16063 MEMB     138      SAPS     C13      CCL      0.340000       12.0110           0
     16064 MEMB     138      SAPS     O13A     OCL     -0.670000       15.9994           0
     16065 MEMB     138      SAPS     O13B     OCL     -0.670000       15.9994           0
     16066 MEMB     138      SAPS     C11      CTL2    -0.800000E-01   12.0110           0
     16067 MEMB     138      SAPS     H11A     HAL2     0.900000E-01   1.00800           0
     16068 MEMB     138      SAPS     H11B     HAL2     0.900000E-01   1.00800           0
     16069 MEMB     138      SAPS     P        PL        1.50000       30.9740           0
     16070 MEMB     138      SAPS     O13      O2L     -0.780000       15.9994           0
     16071 MEMB     138      SAPS     O14      O2L     -0.780000       15.9994           0
     16072 MEMB     138      SAPS     O12      OSLP    -0.570000       15.9994           0
     16073 MEMB     138      SAPS     O11      OSLP    -0.570000       15.9994           0
     16074 MEMB     138      SAPS     C1       CTL2    -0.800000E-01   12.0110           0
     16075 MEMB     138      SAPS     HA       HAL2     0.900000E-01   1.00800           0
     16076 MEMB     138      SAPS     HB       HAL2     0.900000E-01   1.00800           0
     16077 MEMB     138      SAPS     C2       CTL1     0.170000       12.0110           0
     16078 MEMB     138      SAPS     HS       HAL1     0.900000E-01   1.00800           0
     16079 MEMB     138      SAPS     O21      OSL     -0.490000       15.9994           0
     16080 MEMB     138      SAPS     C21      CL       0.900000       12.0110           0
     16081 MEMB     138      SAPS     O22      OBL     -0.630000       15.9994           0
     16082 MEMB     138      SAPS     C22      CTL2    -0.220000       12.0110           0
     16083 MEMB     138      SAPS     H2R      HAL2     0.900000E-01   1.00800           0
     16084 MEMB     138      SAPS     H2S      HAL2     0.900000E-01   1.00800           0
     16085 MEMB     138      SAPS     C3       CTL2     0.800000E-01   12.0110           0
     16086 MEMB     138      SAPS     HX       HAL2     0.900000E-01   1.00800           0
     16087 MEMB     138      SAPS     HY       HAL2     0.900000E-01   1.00800           0
     16088 MEMB     138      SAPS     O31      OSL     -0.490000       15.9994           0
     16089 MEMB     138      SAPS     C31      CL       0.900000       12.0110           0
     16090 MEMB     138      SAPS     O32      OBL     -0.630000       15.9994           0
     16091 MEMB     138      SAPS     C32      CTL2    -0.220000       12.0110           0
     16092 MEMB     138      SAPS     H2X      HAL2     0.900000E-01   1.00800           0
     16093 MEMB     138      SAPS     H2Y      HAL2     0.900000E-01   1.00800           0
     16094 MEMB     138      SAPS     C23      CTL2    -0.180000       12.0110           0
     16095 MEMB     138      SAPS     H3R      HAL2     0.900000E-01   1.00800           0
     16096 MEMB     138      SAPS     H3S      HAL2     0.900000E-01   1.00800           0
     16097 MEMB     138      SAPS     C24      CTL2    -0.180000       12.0110           0
     16098 MEMB     138      SAPS     H4R      HAL2     0.900000E-01   1.00800           0
     16099 MEMB     138      SAPS     H4S      HAL2     0.900000E-01   1.00800           0
     16100 MEMB     138      SAPS     C25      CEL1    -0.150000       12.0110           0
     16101 MEMB     138      SAPS     H5R      HEL1     0.150000       1.00800           0
     16102 MEMB     138      SAPS     C26      CEL1    -0.150000       12.0110           0
     16103 MEMB     138      SAPS     H6R      HEL1     0.150000       1.00800           0
     16104 MEMB     138      SAPS     C27      CTL2    -0.180000       12.0110           0
     16105 MEMB     138      SAPS     H7R      HAL2     0.900000E-01   1.00800           0
     16106 MEMB     138      SAPS     H7S      HAL2     0.900000E-01   1.00800           0
     16107 MEMB     138      SAPS     C28      CEL1    -0.150000       12.0110           0
     16108 MEMB     138      SAPS     H8R      HEL1     0.150000       1.00800           0
     16109 MEMB     138      SAPS     C29      CEL1    -0.150000       12.0110           0
     16110 MEMB     138      SAPS     H9R      HEL1     0.150000       1.00800           0
     16111 MEMB     138      SAPS     C210     CTL2    -0.180000       12.0110           0
     16112 MEMB     138      SAPS     H10R     HAL2     0.900000E-01   1.00800           0
     16113 MEMB     138      SAPS     H10S     HAL2     0.900000E-01   1.00800           0
     16114 MEMB     138      SAPS     C211     CEL1    -0.150000       12.0110           0
     16115 MEMB     138      SAPS     H11R     HEL1     0.150000       1.00800           0
     16116 MEMB     138      SAPS     C212     CEL1    -0.150000       12.0110           0
     16117 MEMB     138      SAPS     H12R     HEL1     0.150000       1.00800           0
     16118 MEMB     138      SAPS     C213     CTL2    -0.180000       12.0110           0
     16119 MEMB     138      SAPS     H13R     HAL2     0.900000E-01   1.00800           0
     16120 MEMB     138      SAPS     H13S     HAL2     0.900000E-01   1.00800           0
     16121 MEMB     138      SAPS     C214     CEL1    -0.150000       12.0110           0
     16122 MEMB     138      SAPS     H14R     HEL1     0.150000       1.00800           0
     16123 MEMB     138      SAPS     C215     CEL1    -0.150000       12.0110           0
     16124 MEMB     138      SAPS     H15R     HEL1     0.150000       1.00800           0
     16125 MEMB     138      SAPS     C216     CTL2    -0.180000       12.0110           0
     16126 MEMB     138      SAPS     H16R     HAL2     0.900000E-01   1.00800           0
     16127 MEMB     138      SAPS     H16S     HAL2     0.900000E-01   1.00800           0
     16128 MEMB     138      SAPS     C217     CTL2    -0.180000       12.0110           0
     16129 MEMB     138      SAPS     H17R     HAL2     0.900000E-01   1.00800           0
     16130 MEMB     138      SAPS     H17S     HAL2     0.900000E-01   1.00800           0
     16131 MEMB     138      SAPS     C218     CTL2    -0.180000       12.0110           0
     16132 MEMB     138      SAPS     H18R     HAL2     0.900000E-01   1.00800           0
     16133 MEMB     138      SAPS     H18S     HAL2     0.900000E-01   1.00800           0
     16134 MEMB     138      SAPS     C219     CTL2    -0.180000       12.0110           0
     16135 MEMB     138      SAPS     H19R     HAL2     0.900000E-01   1.00800           0
     16136 MEMB     138      SAPS     H19S     HAL2     0.900000E-01   1.00800           0
     16137 MEMB     138      SAPS     C220     CTL3    -0.270000       12.0110           0
     16138 MEMB     138      SAPS     H20R     HAL3     0.900000E-01   1.00800           0
     16139 MEMB     138      SAPS     H20S     HAL3     0.900000E-01   1.00800           0
     16140 MEMB     138      SAPS     H20T     HAL3     0.900000E-01   1.00800           0
     16141 MEMB     138      SAPS     C33      CTL2    -0.180000       12.0110           0
     16142 MEMB     138      SAPS     H3X      HAL2     0.900000E-01   1.00800           0
     16143 MEMB     138      SAPS     H3Y      HAL2     0.900000E-01   1.00800           0
     16144 MEMB     138      SAPS     C34      CTL2    -0.180000       12.0110           0
     16145 MEMB     138      SAPS     H4X      HAL2     0.900000E-01   1.00800           0
     16146 MEMB     138      SAPS     H4Y      HAL2     0.900000E-01   1.00800           0
     16147 MEMB     138      SAPS     C35      CTL2    -0.180000       12.0110           0
     16148 MEMB     138      SAPS     H5X      HAL2     0.900000E-01   1.00800           0
     16149 MEMB     138      SAPS     H5Y      HAL2     0.900000E-01   1.00800           0
     16150 MEMB     138      SAPS     C36      CTL2    -0.180000       12.0110           0
     16151 MEMB     138      SAPS     H6X      HAL2     0.900000E-01   1.00800           0
     16152 MEMB     138      SAPS     H6Y      HAL2     0.900000E-01   1.00800           0
     16153 MEMB     138      SAPS     C37      CTL2    -0.180000       12.0110           0
     16154 MEMB     138      SAPS     H7X      HAL2     0.900000E-01   1.00800           0
     16155 MEMB     138      SAPS     H7Y      HAL2     0.900000E-01   1.00800           0
     16156 MEMB     138      SAPS     C38      CTL2    -0.180000       12.0110           0
     16157 MEMB     138      SAPS     H8X      HAL2     0.900000E-01   1.00800           0
     16158 MEMB     138      SAPS     H8Y      HAL2     0.900000E-01   1.00800           0
     16159 MEMB     138      SAPS     C39      CTL2    -0.180000       12.0110           0
     16160 MEMB     138      SAPS     H9X      HAL2     0.900000E-01   1.00800           0
     16161 MEMB     138      SAPS     H9Y      HAL2     0.900000E-01   1.00800           0
     16162 MEMB     138      SAPS     C310     CTL2    -0.180000       12.0110           0
     16163 MEMB     138      SAPS     H10X     HAL2     0.900000E-01   1.00800           0
     16164 MEMB     138      SAPS     H10Y     HAL2     0.900000E-01   1.00800           0
     16165 MEMB     138      SAPS     C311     CTL2    -0.180000       12.0110           0
     16166 MEMB     138      SAPS     H11X     HAL2     0.900000E-01   1.00800           0
     16167 MEMB     138      SAPS     H11Y     HAL2     0.900000E-01   1.00800           0
     16168 MEMB     138      SAPS     C312     CTL2    -0.180000       12.0110           0
     16169 MEMB     138      SAPS     H12X     HAL2     0.900000E-01   1.00800           0
     16170 MEMB     138      SAPS     H12Y     HAL2     0.900000E-01   1.00800           0
     16171 MEMB     138      SAPS     C313     CTL2    -0.180000       12.0110           0
     16172 MEMB     138      SAPS     H13X     HAL2     0.900000E-01   1.00800           0
     16173 MEMB     138      SAPS     H13Y     HAL2     0.900000E-01   1.00800           0
     16174 MEMB     138      SAPS     C314     CTL2    -0.180000       12.0110           0
     16175 MEMB     138      SAPS     H14X     HAL2     0.900000E-01   1.00800           0
     16176 MEMB     138      SAPS     H14Y     HAL2     0.900000E-01   1.00800           0
     16177 MEMB     138      SAPS     C315     CTL2    -0.180000       12.0110           0
     16178 MEMB     138      SAPS     H15X     HAL2     0.900000E-01   1.00800           0
     16179 MEMB     138      SAPS     H15Y     HAL2     0.900000E-01   1.00800           0
     16180 MEMB     138      SAPS     C316     CTL2    -0.180000       12.0110           0
     16181 MEMB     138      SAPS     H16X     HAL2     0.900000E-01   1.00800           0
     16182 MEMB     138      SAPS     H16Y     HAL2     0.900000E-01   1.00800           0
     16183 MEMB     138      SAPS     C317     CTL2    -0.180000       12.0110           0
     16184 MEMB     138      SAPS     H17X     HAL2     0.900000E-01   1.00800           0
     16185 MEMB     138      SAPS     H17Y     HAL2     0.900000E-01   1.00800           0
     16186 MEMB     138      SAPS     C318     CTL3    -0.270000       12.0110           0
     16187 MEMB     138      SAPS     H18X     HAL3     0.900000E-01   1.00800           0
     16188 MEMB     138      SAPS     H18Y     HAL3     0.900000E-01   1.00800           0
     16189 MEMB     138      SAPS     H18Z     HAL3     0.900000E-01   1.00800           0
     16190 MEMB     139      CHL1     C3       CRL1     0.140000       12.0110           0
     16191 MEMB     139      CHL1     H3       HGA1     0.900000E-01   1.00800           0
     16192 MEMB     139      CHL1     O3       OHL     -0.660000       15.9994           0
     16193 MEMB     139      CHL1     H3'      HOL      0.430000       1.00800           0
     16194 MEMB     139      CHL1     C4       CRL2    -0.180000       12.0110           0
     16195 MEMB     139      CHL1     H4A      HGA2     0.900000E-01   1.00800           0
     16196 MEMB     139      CHL1     H4B      HGA2     0.900000E-01   1.00800           0
     16197 MEMB     139      CHL1     C5       CEL1      0.00000       12.0110           0
     16198 MEMB     139      CHL1     C6       CEL1    -0.150000       12.0110           0
     16199 MEMB     139      CHL1     H6       HEL1     0.150000       1.00800           0
     16200 MEMB     139      CHL1     C7       CRL2    -0.180000       12.0110           0
     16201 MEMB     139      CHL1     H7A      HGA2     0.900000E-01   1.00800           0
     16202 MEMB     139      CHL1     H7B      HGA2     0.900000E-01   1.00800           0
     16203 MEMB     139      CHL1     C8       CRL1    -0.900000E-01   12.0110           0
     16204 MEMB     139      CHL1     H8       HGA1     0.900000E-01   1.00800           0
     16205 MEMB     139      CHL1     C14      CRL1    -0.900000E-01   12.0110           0
     16206 MEMB     139      CHL1     H14      HGA1     0.900000E-01   1.00800           0
     16207 MEMB     139      CHL1     C15      CRL2    -0.180000       12.0110           0
     16208 MEMB     139      CHL1     H15A     HGA2     0.900000E-01   1.00800           0
     16209 MEMB     139      CHL1     H15B     HGA2     0.900000E-01   1.00800           0
     16210 MEMB     139      CHL1     C16      CRL2    -0.180000       12.0110           0
     16211 MEMB     139      CHL1     H16A     HGA2     0.900000E-01   1.00800           0
     16212 MEMB     139      CHL1     H16B     HGA2     0.900000E-01   1.00800           0
     16213 MEMB     139      CHL1     C17      CRL1    -0.900000E-01   12.0110           0
     16214 MEMB     139      CHL1     H17      HGA1     0.900000E-01   1.00800           0
     16215 MEMB     139      CHL1     C13      CRL1      0.00000       12.0110           0
     16216 MEMB     139      CHL1     C18      CTL3    -0.270000       12.0110           0
     16217 MEMB     139      CHL1     H18A     HAL3     0.900000E-01   1.00800           0
     16218 MEMB     139      CHL1     H18B     HAL3     0.900000E-01   1.00800           0
     16219 MEMB     139      CHL1     H18C     HAL3     0.900000E-01   1.00800           0
     16220 MEMB     139      CHL1     C12      CRL2    -0.180000       12.0110           0
     16221 MEMB     139      CHL1     H12A     HGA2     0.900000E-01   1.00800           0
     16222 MEMB     139      CHL1     H12B     HGA2     0.900000E-01   1.00800           0
     16223 MEMB     139      CHL1     C11      CRL2    -0.180000       12.0110           0
     16224 MEMB     139      CHL1     H11A     HGA2     0.900000E-01   1.00800           0
     16225 MEMB     139      CHL1     H11B     HGA2     0.900000E-01   1.00800           0
     16226 MEMB     139      CHL1     C9       CRL1    -0.900000E-01   12.0110           0
     16227 MEMB     139      CHL1     H9       HGA1     0.900000E-01   1.00800           0
     16228 MEMB     139      CHL1     C10      CRL1      0.00000       12.0110           0
     16229 MEMB     139      CHL1     C19      CTL3    -0.270000       12.0110           0
     16230 MEMB     139      CHL1     H19A     HAL3     0.900000E-01   1.00800           0
     16231 MEMB     139      CHL1     H19B     HAL3     0.900000E-01   1.00800           0
     16232 MEMB     139      CHL1     H19C     HAL3     0.900000E-01   1.00800           0
     16233 MEMB     139      CHL1     C1       CRL2    -0.180000       12.0110           0
     16234 MEMB     139      CHL1     H1A      HGA2     0.900000E-01   1.00800           0
     16235 MEMB     139      CHL1     H1B      HGA2     0.900000E-01   1.00800           0
     16236 MEMB     139      CHL1     C2       CRL2    -0.180000       12.0110           0
     16237 MEMB     139      CHL1     H2A      HGA2     0.900000E-01   1.00800           0
     16238 MEMB     139      CHL1     H2B      HGA2     0.900000E-01   1.00800           0
     16239 MEMB     139      CHL1     C20      CTL1    -0.900000E-01   12.0110           0
     16240 MEMB     139      CHL1     H20      HAL1     0.900000E-01   1.00800           0
     16241 MEMB     139      CHL1     C21      CTL3    -0.270000       12.0110           0
     16242 MEMB     139      CHL1     H21A     HAL3     0.900000E-01   1.00800           0
     16243 MEMB     139      CHL1     H21B     HAL3     0.900000E-01   1.00800           0
     16244 MEMB     139      CHL1     H21C     HAL3     0.900000E-01   1.00800           0
     16245 MEMB     139      CHL1     C22      CTL2    -0.180000       12.0110           0
     16246 MEMB     139      CHL1     H22A     HAL2     0.900000E-01   1.00800           0
     16247 MEMB     139      CHL1     H22B     HAL2     0.900000E-01   1.00800           0
     16248 MEMB     139      CHL1     C23      CTL2    -0.180000       12.0110           0
     16249 MEMB     139      CHL1     H23A     HAL2     0.900000E-01   1.00800           0
     16250 MEMB     139      CHL1     H23B     HAL2     0.900000E-01   1.00800           0
     16251 MEMB     139      CHL1     C24      CTL2    -0.180000       12.0110           0
     16252 MEMB     139      CHL1     H24A     HAL2     0.900000E-01   1.00800           0
     16253 MEMB     139      CHL1     H24B     HAL2     0.900000E-01   1.00800           0
     16254 MEMB     139      CHL1     C25      CTL1    -0.900000E-01   12.0110           0
     16255 MEMB     139      CHL1     H25      HAL1     0.900000E-01   1.00800           0
     16256 MEMB     139      CHL1     C26      CTL3    -0.270000       12.0110           0
     16257 MEMB     139      CHL1     H26A     HAL3     0.900000E-01   1.00800           0
     16258 MEMB     139      CHL1     H26B     HAL3     0.900000E-01   1.00800           0
     16259 MEMB     139      CHL1     H26C     HAL3     0.900000E-01   1.00800           0
     16260 MEMB     139      CHL1     C27      CTL3    -0.270000       12.0110           0
     16261 MEMB     139      CHL1     H27A     HAL3     0.900000E-01   1.00800           0
     16262 MEMB     139      CHL1     H27B     HAL3     0.900000E-01   1.00800           0
     16263 MEMB     139      CHL1     H27C     HAL3     0.900000E-01   1.00800           0
     16264 MEMB     140      OSM      N        NTL     -0.600000       14.0070           0
     16265 MEMB     140      OSM      C15      CTL5    -0.350000       12.0110           0
     16266 MEMB     140      OSM      H15A     HL       0.250000       1.00800           0
     16267 MEMB     140      OSM      H15B     HL       0.250000       1.00800           0
     16268 MEMB     140      OSM      H15C     HL       0.250000       1.00800           0
     16269 MEMB     140      OSM      C14      CTL5    -0.350000       12.0110           0
     16270 MEMB     140      OSM      H14A     HL       0.250000       1.00800           0
     16271 MEMB     140      OSM      H14B     HL       0.250000       1.00800           0
     16272 MEMB     140      OSM      H14C     HL       0.250000       1.00800           0
     16273 MEMB     140      OSM      C13      CTL5    -0.350000       12.0110           0
     16274 MEMB     140      OSM      H13A     HL       0.250000       1.00800           0
     16275 MEMB     140      OSM      H13B     HL       0.250000       1.00800           0
     16276 MEMB     140      OSM      H13C     HL       0.250000       1.00800           0
     16277 MEMB     140      OSM      C12      CTL2    -0.100000       12.0110           0
     16278 MEMB     140      OSM      H12A     HL       0.250000       1.00800           0
     16279 MEMB     140      OSM      H12B     HL       0.250000       1.00800           0
     16280 MEMB     140      OSM      C11      CTL2    -0.800000E-01   12.0110           0
     16281 MEMB     140      OSM      H11A     HAL2     0.900000E-01   1.00800           0
     16282 MEMB     140      OSM      H11B     HAL2     0.900000E-01   1.00800           0
     16283 MEMB     140      OSM      P        PL        1.50000       30.9740           0
     16284 MEMB     140      OSM      O13      O2L     -0.780000       15.9994           0
     16285 MEMB     140      OSM      O14      O2L     -0.780000       15.9994           0
     16286 MEMB     140      OSM      O11      OSLP    -0.570000       15.9994           0
     16287 MEMB     140      OSM      O12      OSLP    -0.570000       15.9994           0
     16288 MEMB     140      OSM      C1S      CTL2    -0.800000E-01   12.0110           0
     16289 MEMB     140      OSM      H1S      HAL2     0.900000E-01   1.00800           0
     16290 MEMB     140      OSM      H1T      HAL2     0.900000E-01   1.00800           0
     16291 MEMB     140      OSM      NF       NHL     -0.700000       14.0070           0
     16292 MEMB     140      OSM      HNF      H        0.350000       1.00800           0
     16293 MEMB     140      OSM      C2S      CTL1     0.300000       12.0110           0
     16294 MEMB     140      OSM      H2S      HAL1     0.500000E-01   1.00800           0
     16295 MEMB     140      OSM      C3S      CTO1     0.500000       12.0110           0
     16296 MEMB     140      OSM      H3S      HAL1    -0.110000       1.00800           0
     16297 MEMB     140      OSM      O3       OHL     -0.690000       15.9994           0
     16298 MEMB     140      OSM      HO3      HOL      0.300000       1.00800           0
     16299 MEMB     140      OSM      C4S      CEL3    -0.150000       12.0110           0
     16300 MEMB     140      OSM      H4S      HEL1     0.150000       1.00800           0
     16301 MEMB     140      OSM      C5S      CEL3    -0.150000       12.0110           0
     16302 MEMB     140      OSM      H5S      HEL1     0.150000       1.00800           0
     16303 MEMB     140      OSM      C6S      CTL2    -0.180000       12.0110           0
     16304 MEMB     140      OSM      H6S      HAL2     0.900000E-01   1.00800           0
     16305 MEMB     140      OSM      H6T      HAL2     0.900000E-01   1.00800           0
     16306 MEMB     140      OSM      C7S      CTL2    -0.180000       12.0110           0
     16307 MEMB     140      OSM      H7S      HAL2     0.900000E-01   1.00800           0
     16308 MEMB     140      OSM      H7T      HAL2     0.900000E-01   1.00800           0
     16309 MEMB     140      OSM      C8S      CTL2    -0.180000       12.0110           0
     16310 MEMB     140      OSM      H8S      HAL2     0.900000E-01   1.00800           0
     16311 MEMB     140      OSM      H8T      HAL2     0.900000E-01   1.00800           0
     16312 MEMB     140      OSM      C9S      CTL2    -0.180000       12.0110           0
     16313 MEMB     140      OSM      H9S      HAL2     0.900000E-01   1.00800           0
     16314 MEMB     140      OSM      H9T      HAL2     0.900000E-01   1.00800           0
     16315 MEMB     140      OSM      C10S     CTL2    -0.180000       12.0110           0
     16316 MEMB     140      OSM      H10S     HAL2     0.900000E-01   1.00800           0
     16317 MEMB     140      OSM      H10T     HAL2     0.900000E-01   1.00800           0
     16318 MEMB     140      OSM      C11S     CTL2    -0.180000       12.0110           0
     16319 MEMB     140      OSM      H11S     HAL2     0.900000E-01   1.00800           0
     16320 MEMB     140      OSM      H11T     HAL2     0.900000E-01   1.00800           0
     16321 MEMB     140      OSM      C12S     CTL2    -0.180000       12.0110           0
     16322 MEMB     140      OSM      H12S     HAL2     0.900000E-01   1.00800           0
     16323 MEMB     140      OSM      H12T     HAL2     0.900000E-01   1.00800           0
     16324 MEMB     140      OSM      C13S     CTL2    -0.180000       12.0110           0
     16325 MEMB     140      OSM      H13S     HAL2     0.900000E-01   1.00800           0
     16326 MEMB     140      OSM      H13T     HAL2     0.900000E-01   1.00800           0
     16327 MEMB     140      OSM      C14S     CTL2    -0.180000       12.0110           0
     16328 MEMB     140      OSM      H14S     HAL2     0.900000E-01   1.00800           0
     16329 MEMB     140      OSM      H14T     HAL2     0.900000E-01   1.00800           0
     16330 MEMB     140      OSM      C15S     CTL2    -0.180000       12.0110           0
     16331 MEMB     140      OSM      H15S     HAL2     0.900000E-01   1.00800           0
     16332 MEMB     140      OSM      H15T     HAL2     0.900000E-01   1.00800           0
     16333 MEMB     140      OSM      C16S     CTL2    -0.180000       12.0110           0
     16334 MEMB     140      OSM      H16S     HAL2     0.900000E-01   1.00800           0
     16335 MEMB     140      OSM      H16T     HAL2     0.900000E-01   1.00800           0
     16336 MEMB     140      OSM      C17S     CTL2    -0.180000       12.0110           0
     16337 MEMB     140      OSM      H17S     HAL2     0.900000E-01   1.00800           0
     16338 MEMB     140      OSM      H17T     HAL2     0.900000E-01   1.00800           0
     16339 MEMB     140      OSM      C18S     CTL3    -0.270000       12.0110           0
     16340 MEMB     140      OSM      H18S     HAL3     0.900000E-01   1.00800           0
     16341 MEMB     140      OSM      H18T     HAL3     0.900000E-01   1.00800           0
     16342 MEMB     140      OSM      H18U     HAL3     0.900000E-01   1.00800           0
     16343 MEMB     140      OSM      C1F      C        0.550000       12.0110           0
     16344 MEMB     140      OSM      OF       O       -0.600000       15.9994           0
     16345 MEMB     140      OSM      C2F      CTL2    -0.700000E-01   12.0110           0
     16346 MEMB     140      OSM      H2F      HAL2     0.600000E-01   1.00800           0
     16347 MEMB     140      OSM      H2G      HAL2     0.600000E-01   1.00800           0
     16348 MEMB     140      OSM      C3F      CTL2    -0.180000       12.0110           0
     16349 MEMB     140      OSM      H3F      HAL2     0.900000E-01   1.00800           0
     16350 MEMB     140      OSM      H3G      HAL2     0.900000E-01   1.00800           0
     16351 MEMB     140      OSM      C4F      CTL2    -0.180000       12.0110           0
     16352 MEMB     140      OSM      H4F      HAL2     0.900000E-01   1.00800           0
     16353 MEMB     140      OSM      H4G      HAL2     0.900000E-01   1.00800           0
     16354 MEMB     140      OSM      C5F      CTL2    -0.180000       12.0110           0
     16355 MEMB     140      OSM      H5F      HAL2     0.900000E-01   1.00800           0
     16356 MEMB     140      OSM      H5G      HAL2     0.900000E-01   1.00800           0
     16357 MEMB     140      OSM      C6F      CTL2    -0.180000       12.0110           0
     16358 MEMB     140      OSM      H6F      HAL2     0.900000E-01   1.00800           0
     16359 MEMB     140      OSM      H6G      HAL2     0.900000E-01   1.00800           0
     16360 MEMB     140      OSM      C7F      CTL2    -0.180000       12.0110           0
     16361 MEMB     140      OSM      H7F      HAL2     0.900000E-01   1.00800           0
     16362 MEMB     140      OSM      H7G      HAL2     0.900000E-01   1.00800           0
     16363 MEMB     140      OSM      C8F      CTL2    -0.180000       12.0110           0
     16364 MEMB     140      OSM      H8F      HAL2     0.900000E-01   1.00800           0
     16365 MEMB     140      OSM      H8G      HAL2     0.900000E-01   1.00800           0
     16366 MEMB     140      OSM      C9F      CEL1    -0.150000       12.0110           0
     16367 MEMB     140      OSM      H9F      HEL1     0.150000       1.00800           0
     16368 MEMB     140      OSM      C10F     CEL1    -0.150000       12.0110           0
     16369 MEMB     140      OSM      H10F     HEL1     0.150000       1.00800           0
     16370 MEMB     140      OSM      C11F     CTL2    -0.180000       12.0110           0
     16371 MEMB     140      OSM      H11F     HAL2     0.900000E-01   1.00800           0
     16372 MEMB     140      OSM      H11G     HAL2     0.900000E-01   1.00800           0
     16373 MEMB     140      OSM      C12F     CTL2    -0.180000       12.0110           0
     16374 MEMB     140      OSM      H12F     HAL2     0.900000E-01   1.00800           0
     16375 MEMB     140      OSM      H12G     HAL2     0.900000E-01   1.00800           0
     16376 MEMB     140      OSM      C13F     CTL2    -0.180000       12.0110           0
     16377 MEMB     140      OSM      H13F     HAL2     0.900000E-01   1.00800           0
     16378 MEMB     140      OSM      H13G     HAL2     0.900000E-01   1.00800           0
     16379 MEMB     140      OSM      C14F     CTL2    -0.180000       12.0110           0
     16380 MEMB     140      OSM      H14F     HAL2     0.900000E-01   1.00800           0
     16381 MEMB     140      OSM      H14G     HAL2     0.900000E-01   1.00800           0
     16382 MEMB     140      OSM      C15F     CTL2    -0.180000       12.0110           0
     16383 MEMB     140      OSM      H15F     HAL2     0.900000E-01   1.00800           0
     16384 MEMB     140      OSM      H15G     HAL2     0.900000E-01   1.00800           0
     16385 MEMB     140      OSM      C16F     CTL2    -0.180000       12.0110           0
     16386 MEMB     140      OSM      H16F     HAL2     0.900000E-01   1.00800           0
     16387 MEMB     140      OSM      H16G     HAL2     0.900000E-01   1.00800           0
     16388 MEMB     140      OSM      C17F     CTL2    -0.180000       12.0110           0
     16389 MEMB     140      OSM      H17F     HAL2     0.900000E-01   1.00800           0
     16390 MEMB     140      OSM      H17G     HAL2     0.900000E-01   1.00800           0
     16391 MEMB     140      OSM      C18F     CTL3    -0.270000       12.0110           0
     16392 MEMB     140      OSM      H18F     HAL3     0.900000E-01   1.00800           0
     16393 MEMB     140      OSM      H18G     HAL3     0.900000E-01   1.00800           0
     16394 MEMB     140      OSM      H18H     HAL3     0.900000E-01   1.00800           0
     16395 MEMB     141      SAPE     N        NH3L    -0.300000       14.0070           0
     16396 MEMB     141      SAPE     HN1      HCL      0.330000       1.00800           0
     16397 MEMB     141      SAPE     HN2      HCL      0.330000       1.00800           0
     16398 MEMB     141      SAPE     HN3      HCL      0.330000       1.00800           0
     16399 MEMB     141      SAPE     C12      CTL2     0.130000       12.0110           0
     16400 MEMB     141      SAPE     H12A     HAL2     0.900000E-01   1.00800           0
     16401 MEMB     141      SAPE     H12B     HAL2     0.900000E-01   1.00800           0
     16402 MEMB     141      SAPE     C11      CTL2    -0.800000E-01   12.0110           0
     16403 MEMB     141      SAPE     H11A     HAL2     0.900000E-01   1.00800           0
     16404 MEMB     141      SAPE     H11B     HAL2     0.900000E-01   1.00800           0
     16405 MEMB     141      SAPE     P        PL        1.50000       30.9740           0
     16406 MEMB     141      SAPE     O13      O2L     -0.780000       15.9994           0
     16407 MEMB     141      SAPE     O14      O2L     -0.780000       15.9994           0
     16408 MEMB     141      SAPE     O12      OSLP    -0.570000       15.9994           0
     16409 MEMB     141      SAPE     O11      OSLP    -0.570000       15.9994           0
     16410 MEMB     141      SAPE     C1       CTL2    -0.800000E-01   12.0110           0
     16411 MEMB     141      SAPE     HA       HAL2     0.900000E-01   1.00800           0
     16412 MEMB     141      SAPE     HB       HAL2     0.900000E-01   1.00800           0
     16413 MEMB     141      SAPE     C2       CTL1     0.170000       12.0110           0
     16414 MEMB     141      SAPE     HS       HAL1     0.900000E-01   1.00800           0
     16415 MEMB     141      SAPE     O21      OSL     -0.490000       15.9994           0
     16416 MEMB     141      SAPE     C21      CL       0.900000       12.0110           0
     16417 MEMB     141      SAPE     O22      OBL     -0.630000       15.9994           0
     16418 MEMB     141      SAPE     C22      CTL2    -0.220000       12.0110           0
     16419 MEMB     141      SAPE     H2R      HAL2     0.900000E-01   1.00800           0
     16420 MEMB     141      SAPE     H2S      HAL2     0.900000E-01   1.00800           0
     16421 MEMB     141      SAPE     C3       CTL2     0.800000E-01   12.0110           0
     16422 MEMB     141      SAPE     HX       HAL2     0.900000E-01   1.00800           0
     16423 MEMB     141      SAPE     HY       HAL2     0.900000E-01   1.00800           0
     16424 MEMB     141      SAPE     O31      OSL     -0.490000       15.9994           0
     16425 MEMB     141      SAPE     C31      CL       0.900000       12.0110           0
     16426 MEMB     141      SAPE     O32      OBL     -0.630000       15.9994           0
     16427 MEMB     141      SAPE     C32      CTL2    -0.220000       12.0110           0
     16428 MEMB     141      SAPE     H2X      HAL2     0.900000E-01   1.00800           0
     16429 MEMB     141      SAPE     H2Y      HAL2     0.900000E-01   1.00800           0
     16430 MEMB     141      SAPE     C23      CTL2    -0.180000       12.0110           0
     16431 MEMB     141      SAPE     H3R      HAL2     0.900000E-01   1.00800           0
     16432 MEMB     141      SAPE     H3S      HAL2     0.900000E-01   1.00800           0
     16433 MEMB     141      SAPE     C24      CTL2    -0.180000       12.0110           0
     16434 MEMB     141      SAPE     H4R      HAL2     0.900000E-01   1.00800           0
     16435 MEMB     141      SAPE     H4S      HAL2     0.900000E-01   1.00800           0
     16436 MEMB     141      SAPE     C25      CEL1    -0.150000       12.0110           0
     16437 MEMB     141      SAPE     H5R      HEL1     0.150000       1.00800           0
     16438 MEMB     141      SAPE     C26      CEL1    -0.150000       12.0110           0
     16439 MEMB     141      SAPE     H6R      HEL1     0.150000       1.00800           0
     16440 MEMB     141      SAPE     C27      CTL2    -0.180000       12.0110           0
     16441 MEMB     141      SAPE     H7R      HAL2     0.900000E-01   1.00800           0
     16442 MEMB     141      SAPE     H7S      HAL2     0.900000E-01   1.00800           0
     16443 MEMB     141      SAPE     C28      CEL1    -0.150000       12.0110           0
     16444 MEMB     141      SAPE     H8R      HEL1     0.150000       1.00800           0
     16445 MEMB     141      SAPE     C29      CEL1    -0.150000       12.0110           0
     16446 MEMB     141      SAPE     H9R      HEL1     0.150000       1.00800           0
     16447 MEMB     141      SAPE     C210     CTL2    -0.180000       12.0110           0
     16448 MEMB     141      SAPE     H10R     HAL2     0.900000E-01   1.00800           0
     16449 MEMB     141      SAPE     H10S     HAL2     0.900000E-01   1.00800           0
     16450 MEMB     141      SAPE     C211     CEL1    -0.150000       12.0110           0
     16451 MEMB     141      SAPE     H11R     HEL1     0.150000       1.00800           0
     16452 MEMB     141      SAPE     C212     CEL1    -0.150000       12.0110           0
     16453 MEMB     141      SAPE     H12R     HEL1     0.150000       1.00800           0
     16454 MEMB     141      SAPE     C213     CTL2    -0.180000       12.0110           0
     16455 MEMB     141      SAPE     H13R     HAL2     0.900000E-01   1.00800           0
     16456 MEMB     141      SAPE     H13S     HAL2     0.900000E-01   1.00800           0
     16457 MEMB     141      SAPE     C214     CEL1    -0.150000       12.0110           0
     16458 MEMB     141      SAPE     H14R     HEL1     0.150000       1.00800           0
     16459 MEMB     141      SAPE     C215     CEL1    -0.150000       12.0110           0
     16460 MEMB     141      SAPE     H15R     HEL1     0.150000       1.00800           0
     16461 MEMB     141      SAPE     C216     CTL2    -0.180000       12.0110           0
     16462 MEMB     141      SAPE     H16R     HAL2     0.900000E-01   1.00800           0
     16463 MEMB     141      SAPE     H16S     HAL2     0.900000E-01   1.00800           0
     16464 MEMB     141      SAPE     C217     CTL2    -0.180000       12.0110           0
     16465 MEMB     141      SAPE     H17R     HAL2     0.900000E-01   1.00800           0
     16466 MEMB     141      SAPE     H17S     HAL2     0.900000E-01   1.00800           0
     16467 MEMB     141      SAPE     C218     CTL2    -0.180000       12.0110           0
     16468 MEMB     141      SAPE     H18R     HAL2     0.900000E-01   1.00800           0
     16469 MEMB     141      SAPE     H18S     HAL2     0.900000E-01   1.00800           0
     16470 MEMB     141      SAPE     C219     CTL2    -0.180000       12.0110           0
     16471 MEMB     141      SAPE     H19R     HAL2     0.900000E-01   1.00800           0
     16472 MEMB     141      SAPE     H19S     HAL2     0.900000E-01   1.00800           0
     16473 MEMB     141      SAPE     C220     CTL3    -0.270000       12.0110           0
     16474 MEMB     141      SAPE     H20R     HAL3     0.900000E-01   1.00800           0
     16475 MEMB     141      SAPE     H20S     HAL3     0.900000E-01   1.00800           0
     16476 MEMB     141      SAPE     H20T     HAL3     0.900000E-01   1.00800           0
     16477 MEMB     141      SAPE     C33      CTL2    -0.180000       12.0110           0
     16478 MEMB     141      SAPE     H3X      HAL2     0.900000E-01   1.00800           0
     16479 MEMB     141      SAPE     H3Y      HAL2     0.900000E-01   1.00800           0
     16480 MEMB     141      SAPE     C34      CTL2    -0.180000       12.0110           0
     16481 MEMB     141      SAPE     H4X      HAL2     0.900000E-01   1.00800           0
     16482 MEMB     141      SAPE     H4Y      HAL2     0.900000E-01   1.00800           0
     16483 MEMB     141      SAPE     C35      CTL2    -0.180000       12.0110           0
     16484 MEMB     141      SAPE     H5X      HAL2     0.900000E-01   1.00800           0
     16485 MEMB     141      SAPE     H5Y      HAL2     0.900000E-01   1.00800           0
     16486 MEMB     141      SAPE     C36      CTL2    -0.180000       12.0110           0
     16487 MEMB     141      SAPE     H6X      HAL2     0.900000E-01   1.00800           0
     16488 MEMB     141      SAPE     H6Y      HAL2     0.900000E-01   1.00800           0
     16489 MEMB     141      SAPE     C37      CTL2    -0.180000       12.0110           0
     16490 MEMB     141      SAPE     H7X      HAL2     0.900000E-01   1.00800           0
     16491 MEMB     141      SAPE     H7Y      HAL2     0.900000E-01   1.00800           0
     16492 MEMB     141      SAPE     C38      CTL2    -0.180000       12.0110           0
     16493 MEMB     141      SAPE     H8X      HAL2     0.900000E-01   1.00800           0
     16494 MEMB     141      SAPE     H8Y      HAL2     0.900000E-01   1.00800           0
     16495 MEMB     141      SAPE     C39      CTL2    -0.180000       12.0110           0
     16496 MEMB     141      SAPE     H9X      HAL2     0.900000E-01   1.00800           0
     16497 MEMB     141      SAPE     H9Y      HAL2     0.900000E-01   1.00800           0
     16498 MEMB     141      SAPE     C310     CTL2    -0.180000       12.0110           0
     16499 MEMB     141      SAPE     H10X     HAL2     0.900000E-01   1.00800           0
     16500 MEMB     141      SAPE     H10Y     HAL2     0.900000E-01   1.00800           0
     16501 MEMB     141      SAPE     C311     CTL2    -0.180000       12.0110           0
     16502 MEMB     141      SAPE     H11X     HAL2     0.900000E-01   1.00800           0
     16503 MEMB     141      SAPE     H11Y     HAL2     0.900000E-01   1.00800           0
     16504 MEMB     141      SAPE     C312     CTL2    -0.180000       12.0110           0
     16505 MEMB     141      SAPE     H12X     HAL2     0.900000E-01   1.00800           0
     16506 MEMB     141      SAPE     H12Y     HAL2     0.900000E-01   1.00800           0
     16507 MEMB     141      SAPE     C313     CTL2    -0.180000       12.0110           0
     16508 MEMB     141      SAPE     H13X     HAL2     0.900000E-01   1.00800           0
     16509 MEMB     141      SAPE     H13Y     HAL2     0.900000E-01   1.00800           0
     16510 MEMB     141      SAPE     C314     CTL2    -0.180000       12.0110           0
     16511 MEMB     141      SAPE     H14X     HAL2     0.900000E-01   1.00800           0
     16512 MEMB     141      SAPE     H14Y     HAL2     0.900000E-01   1.00800           0
     16513 MEMB     141      SAPE     C315     CTL2    -0.180000       12.0110           0
     16514 MEMB     141      SAPE     H15X     HAL2     0.900000E-01   1.00800           0
     16515 MEMB     141      SAPE     H15Y     HAL2     0.900000E-01   1.00800           0
     16516 MEMB     141      SAPE     C316     CTL2    -0.180000       12.0110           0
     16517 MEMB     141      SAPE     H16X     HAL2     0.900000E-01   1.00800           0
     16518 MEMB     141      SAPE     H16Y     HAL2     0.900000E-01   1.00800           0
     16519 MEMB     141      SAPE     C317     CTL2    -0.180000       12.0110           0
     16520 MEMB     141      SAPE     H17X     HAL2     0.900000E-01   1.00800           0
     16521 MEMB     141      SAPE     H17Y     HAL2     0.900000E-01   1.00800           0
     16522 MEMB     141      SAPE     C318     CTL3    -0.270000       12.0110           0
     16523 MEMB     141      SAPE     H18X     HAL3     0.900000E-01   1.00800           0
     16524 MEMB     141      SAPE     H18Y     HAL3     0.900000E-01   1.00800           0
     16525 MEMB     141      SAPE     H18Z     HAL3     0.900000E-01   1.00800           0
     16526 MEMB     142      SLPC     N        NTL     -0.600000       14.0070           0
     16527 MEMB     142      SLPC     C13      CTL5    -0.350000       12.0110           0
     16528 MEMB     142      SLPC     H13A     HL       0.250000       1.00800           0
     16529 MEMB     142      SLPC     H13B     HL       0.250000       1.00800           0
     16530 MEMB     142      SLPC     H13C     HL       0.250000       1.00800           0
     16531 MEMB     142      SLPC     C14      CTL5    -0.350000       12.0110           0
     16532 MEMB     142      SLPC     H14A     HL       0.250000       1.00800           0
     16533 MEMB     142      SLPC     H14B     HL       0.250000       1.00800           0
     16534 MEMB     142      SLPC     H14C     HL       0.250000       1.00800           0
     16535 MEMB     142      SLPC     C15      CTL5    -0.350000       12.0110           0
     16536 MEMB     142      SLPC     H15A     HL       0.250000       1.00800           0
     16537 MEMB     142      SLPC     H15B     HL       0.250000       1.00800           0
     16538 MEMB     142      SLPC     H15C     HL       0.250000       1.00800           0
     16539 MEMB     142      SLPC     C12      CTL2    -0.100000       12.0110           0
     16540 MEMB     142      SLPC     H12A     HL       0.250000       1.00800           0
     16541 MEMB     142      SLPC     H12B     HL       0.250000       1.00800           0
     16542 MEMB     142      SLPC     C11      CTL2    -0.800000E-01   12.0110           0
     16543 MEMB     142      SLPC     H11A     HAL2     0.900000E-01   1.00800           0
     16544 MEMB     142      SLPC     H11B     HAL2     0.900000E-01   1.00800           0
     16545 MEMB     142      SLPC     P        PL        1.50000       30.9740           0
     16546 MEMB     142      SLPC     O13      O2L     -0.780000       15.9994           0
     16547 MEMB     142      SLPC     O14      O2L     -0.780000       15.9994           0
     16548 MEMB     142      SLPC     O12      OSLP    -0.570000       15.9994           0
     16549 MEMB     142      SLPC     O11      OSLP    -0.570000       15.9994           0
     16550 MEMB     142      SLPC     C1       CTL2    -0.800000E-01   12.0110           0
     16551 MEMB     142      SLPC     HA       HAL2     0.900000E-01   1.00800           0
     16552 MEMB     142      SLPC     HB       HAL2     0.900000E-01   1.00800           0
     16553 MEMB     142      SLPC     C2       CTL1     0.170000       12.0110           0
     16554 MEMB     142      SLPC     HS       HAL1     0.900000E-01   1.00800           0
     16555 MEMB     142      SLPC     O21      OSL     -0.490000       15.9994           0
     16556 MEMB     142      SLPC     C21      CL       0.900000       12.0110           0
     16557 MEMB     142      SLPC     O22      OBL     -0.630000       15.9994           0
     16558 MEMB     142      SLPC     C22      CTL2    -0.220000       12.0110           0
     16559 MEMB     142      SLPC     H2R      HAL2     0.900000E-01   1.00800           0
     16560 MEMB     142      SLPC     H2S      HAL2     0.900000E-01   1.00800           0
     16561 MEMB     142      SLPC     C3       CTL2     0.800000E-01   12.0110           0
     16562 MEMB     142      SLPC     HX       HAL2     0.900000E-01   1.00800           0
     16563 MEMB     142      SLPC     HY       HAL2     0.900000E-01   1.00800           0
     16564 MEMB     142      SLPC     O31      OSL     -0.490000       15.9994           0
     16565 MEMB     142      SLPC     C31      CL       0.900000       12.0110           0
     16566 MEMB     142      SLPC     O32      OBL     -0.630000       15.9994           0
     16567 MEMB     142      SLPC     C32      CTL2    -0.220000       12.0110           0
     16568 MEMB     142      SLPC     H2X      HAL2     0.900000E-01   1.00800           0
     16569 MEMB     142      SLPC     H2Y      HAL2     0.900000E-01   1.00800           0
     16570 MEMB     142      SLPC     C23      CTL2    -0.180000       12.0110           0
     16571 MEMB     142      SLPC     H3R      HAL2     0.900000E-01   1.00800           0
     16572 MEMB     142      SLPC     H3S      HAL2     0.900000E-01   1.00800           0
     16573 MEMB     142      SLPC     C24      CTL2    -0.180000       12.0110           0
     16574 MEMB     142      SLPC     H4R      HAL2     0.900000E-01   1.00800           0
     16575 MEMB     142      SLPC     H4S      HAL2     0.900000E-01   1.00800           0
     16576 MEMB     142      SLPC     C25      CTL2    -0.180000       12.0110           0
     16577 MEMB     142      SLPC     H5R      HAL2     0.900000E-01   1.00800           0
     16578 MEMB     142      SLPC     H5S      HAL2     0.900000E-01   1.00800           0
     16579 MEMB     142      SLPC     C26      CTL2    -0.180000       12.0110           0
     16580 MEMB     142      SLPC     H6R      HAL2     0.900000E-01   1.00800           0
     16581 MEMB     142      SLPC     H6S      HAL2     0.900000E-01   1.00800           0
     16582 MEMB     142      SLPC     C27      CTL2    -0.180000       12.0110           0
     16583 MEMB     142      SLPC     H7R      HAL2     0.900000E-01   1.00800           0
     16584 MEMB     142      SLPC     H7S      HAL2     0.900000E-01   1.00800           0
     16585 MEMB     142      SLPC     C28      CTL2    -0.180000       12.0110           0
     16586 MEMB     142      SLPC     H8R      HAL2     0.900000E-01   1.00800           0
     16587 MEMB     142      SLPC     H8S      HAL2     0.900000E-01   1.00800           0
     16588 MEMB     142      SLPC     C29      CEL1    -0.150000       12.0110           0
     16589 MEMB     142      SLPC     H9R      HEL1     0.150000       1.00800           0
     16590 MEMB     142      SLPC     C210     CEL1    -0.150000       12.0110           0
     16591 MEMB     142      SLPC     H10R     HEL1     0.150000       1.00800           0
     16592 MEMB     142      SLPC     C211     CTL2    -0.180000       12.0110           0
     16593 MEMB     142      SLPC     H11R     HAL2     0.900000E-01   1.00800           0
     16594 MEMB     142      SLPC     H11S     HAL2     0.900000E-01   1.00800           0
     16595 MEMB     142      SLPC     C212     CEL1    -0.150000       12.0110           0
     16596 MEMB     142      SLPC     H12R     HEL1     0.150000       1.00800           0
     16597 MEMB     142      SLPC     C213     CEL1    -0.150000       12.0110           0
     16598 MEMB     142      SLPC     H13R     HEL1     0.150000       1.00800           0
     16599 MEMB     142      SLPC     C214     CTL2    -0.180000       12.0110           0
     16600 MEMB     142      SLPC     H14R     HAL2     0.900000E-01   1.00800           0
     16601 MEMB     142      SLPC     H14S     HAL2     0.900000E-01   1.00800           0
     16602 MEMB     142      SLPC     C215     CTL2    -0.180000       12.0110           0
     16603 MEMB     142      SLPC     H15R     HAL2     0.900000E-01   1.00800           0
     16604 MEMB     142      SLPC     H15S     HAL2     0.900000E-01   1.00800           0
     16605 MEMB     142      SLPC     C216     CTL2    -0.180000       12.0110           0
     16606 MEMB     142      SLPC     H16R     HAL2     0.900000E-01   1.00800           0
     16607 MEMB     142      SLPC     H16S     HAL2     0.900000E-01   1.00800           0
     16608 MEMB     142      SLPC     C217     CTL2    -0.180000       12.0110           0
     16609 MEMB     142      SLPC     H17R     HAL2     0.900000E-01   1.00800           0
     16610 MEMB     142      SLPC     H17S     HAL2     0.900000E-01   1.00800           0
     16611 MEMB     142      SLPC     C218     CTL3    -0.270000       12.0110           0
     16612 MEMB     142      SLPC     H18R     HAL3     0.900000E-01   1.00800           0
     16613 MEMB     142      SLPC     H18S     HAL3     0.900000E-01   1.00800           0
     16614 MEMB     142      SLPC     H18T     HAL3     0.900000E-01   1.00800           0
     16615 MEMB     142      SLPC     C33      CTL2    -0.180000       12.0110           0
     16616 MEMB     142      SLPC     H3X      HAL2     0.900000E-01   1.00800           0
     16617 MEMB     142      SLPC     H3Y      HAL2     0.900000E-01   1.00800           0
     16618 MEMB     142      SLPC     C34      CTL2    -0.180000       12.0110           0
     16619 MEMB     142      SLPC     H4X      HAL2     0.900000E-01   1.00800           0
     16620 MEMB     142      SLPC     H4Y      HAL2     0.900000E-01   1.00800           0
     16621 MEMB     142      SLPC     C35      CTL2    -0.180000       12.0110           0
     16622 MEMB     142      SLPC     H5X      HAL2     0.900000E-01   1.00800           0
     16623 MEMB     142      SLPC     H5Y      HAL2     0.900000E-01   1.00800           0
     16624 MEMB     142      SLPC     C36      CTL2    -0.180000       12.0110           0
     16625 MEMB     142      SLPC     H6X      HAL2     0.900000E-01   1.00800           0
     16626 MEMB     142      SLPC     H6Y      HAL2     0.900000E-01   1.00800           0
     16627 MEMB     142      SLPC     C37      CTL2    -0.180000       12.0110           0
     16628 MEMB     142      SLPC     H7X      HAL2     0.900000E-01   1.00800           0
     16629 MEMB     142      SLPC     H7Y      HAL2     0.900000E-01   1.00800           0
     16630 MEMB     142      SLPC     C38      CTL2    -0.180000       12.0110           0
     16631 MEMB     142      SLPC     H8X      HAL2     0.900000E-01   1.00800           0
     16632 MEMB     142      SLPC     H8Y      HAL2     0.900000E-01   1.00800           0
     16633 MEMB     142      SLPC     C39      CTL2    -0.180000       12.0110           0
     16634 MEMB     142      SLPC     H9X      HAL2     0.900000E-01   1.00800           0
     16635 MEMB     142      SLPC     H9Y      HAL2     0.900000E-01   1.00800           0
     16636 MEMB     142      SLPC     C310     CTL2    -0.180000       12.0110           0
     16637 MEMB     142      SLPC     H10X     HAL2     0.900000E-01   1.00800           0
     16638 MEMB     142      SLPC     H10Y     HAL2     0.900000E-01   1.00800           0
     16639 MEMB     142      SLPC     C311     CTL2    -0.180000       12.0110           0
     16640 MEMB     142      SLPC     H11X     HAL2     0.900000E-01   1.00800           0
     16641 MEMB     142      SLPC     H11Y     HAL2     0.900000E-01   1.00800           0
     16642 MEMB     142      SLPC     C312     CTL2    -0.180000       12.0110           0
     16643 MEMB     142      SLPC     H12X     HAL2     0.900000E-01   1.00800           0
     16644 MEMB     142      SLPC     H12Y     HAL2     0.900000E-01   1.00800           0
     16645 MEMB     142      SLPC     C313     CTL2    -0.180000       12.0110           0
     16646 MEMB     142      SLPC     H13X     HAL2     0.900000E-01   1.00800           0
     16647 MEMB     142      SLPC     H13Y     HAL2     0.900000E-01   1.00800           0
     16648 MEMB     142      SLPC     C314     CTL2    -0.180000       12.0110           0
     16649 MEMB     142      SLPC     H14X     HAL2     0.900000E-01   1.00800           0
     16650 MEMB     142      SLPC     H14Y     HAL2     0.900000E-01   1.00800           0
     16651 MEMB     142      SLPC     C315     CTL2    -0.180000       12.0110           0
     16652 MEMB     142      SLPC     H15X     HAL2     0.900000E-01   1.00800           0
     16653 MEMB     142      SLPC     H15Y     HAL2     0.900000E-01   1.00800           0
     16654 MEMB     142      SLPC     C316     CTL2    -0.180000       12.0110           0
     16655 MEMB     142      SLPC     H16X     HAL2     0.900000E-01   1.00800           0
     16656 MEMB     142      SLPC     H16Y     HAL2     0.900000E-01   1.00800           0
     16657 MEMB     142      SLPC     C317     CTL2    -0.180000       12.0110           0
     16658 MEMB     142      SLPC     H17X     HAL2     0.900000E-01   1.00800           0
     16659 MEMB     142      SLPC     H17Y     HAL2     0.900000E-01   1.00800           0
     16660 MEMB     142      SLPC     C318     CTL3    -0.270000       12.0110           0
     16661 MEMB     142      SLPC     H18X     HAL3     0.900000E-01   1.00800           0
     16662 MEMB     142      SLPC     H18Y     HAL3     0.900000E-01   1.00800           0
     16663 MEMB     142      SLPC     H18Z     HAL3     0.900000E-01   1.00800           0
     16664 MEMB     143      OSM      N        NTL     -0.600000       14.0070           0
     16665 MEMB     143      OSM      C15      CTL5    -0.350000       12.0110           0
     16666 MEMB     143      OSM      H15A     HL       0.250000       1.00800           0
     16667 MEMB     143      OSM      H15B     HL       0.250000       1.00800           0
     16668 MEMB     143      OSM      H15C     HL       0.250000       1.00800           0
     16669 MEMB     143      OSM      C14      CTL5    -0.350000       12.0110           0
     16670 MEMB     143      OSM      H14A     HL       0.250000       1.00800           0
     16671 MEMB     143      OSM      H14B     HL       0.250000       1.00800           0
     16672 MEMB     143      OSM      H14C     HL       0.250000       1.00800           0
     16673 MEMB     143      OSM      C13      CTL5    -0.350000       12.0110           0
     16674 MEMB     143      OSM      H13A     HL       0.250000       1.00800           0
     16675 MEMB     143      OSM      H13B     HL       0.250000       1.00800           0
     16676 MEMB     143      OSM      H13C     HL       0.250000       1.00800           0
     16677 MEMB     143      OSM      C12      CTL2    -0.100000       12.0110           0
     16678 MEMB     143      OSM      H12A     HL       0.250000       1.00800           0
     16679 MEMB     143      OSM      H12B     HL       0.250000       1.00800           0
     16680 MEMB     143      OSM      C11      CTL2    -0.800000E-01   12.0110           0
     16681 MEMB     143      OSM      H11A     HAL2     0.900000E-01   1.00800           0
     16682 MEMB     143      OSM      H11B     HAL2     0.900000E-01   1.00800           0
     16683 MEMB     143      OSM      P        PL        1.50000       30.9740           0
     16684 MEMB     143      OSM      O13      O2L     -0.780000       15.9994           0
     16685 MEMB     143      OSM      O14      O2L     -0.780000       15.9994           0
     16686 MEMB     143      OSM      O11      OSLP    -0.570000       15.9994           0
     16687 MEMB     143      OSM      O12      OSLP    -0.570000       15.9994           0
     16688 MEMB     143      OSM      C1S      CTL2    -0.800000E-01   12.0110           0
     16689 MEMB     143      OSM      H1S      HAL2     0.900000E-01   1.00800           0
     16690 MEMB     143      OSM      H1T      HAL2     0.900000E-01   1.00800           0
     16691 MEMB     143      OSM      NF       NHL     -0.700000       14.0070           0
     16692 MEMB     143      OSM      HNF      H        0.350000       1.00800           0
     16693 MEMB     143      OSM      C2S      CTL1     0.300000       12.0110           0
     16694 MEMB     143      OSM      H2S      HAL1     0.500000E-01   1.00800           0
     16695 MEMB     143      OSM      C3S      CTO1     0.500000       12.0110           0
     16696 MEMB     143      OSM      H3S      HAL1    -0.110000       1.00800           0
     16697 MEMB     143      OSM      O3       OHL     -0.690000       15.9994           0
     16698 MEMB     143      OSM      HO3      HOL      0.300000       1.00800           0
     16699 MEMB     143      OSM      C4S      CEL3    -0.150000       12.0110           0
     16700 MEMB     143      OSM      H4S      HEL1     0.150000       1.00800           0
     16701 MEMB     143      OSM      C5S      CEL3    -0.150000       12.0110           0
     16702 MEMB     143      OSM      H5S      HEL1     0.150000       1.00800           0
     16703 MEMB     143      OSM      C6S      CTL2    -0.180000       12.0110           0
     16704 MEMB     143      OSM      H6S      HAL2     0.900000E-01   1.00800           0
     16705 MEMB     143      OSM      H6T      HAL2     0.900000E-01   1.00800           0
     16706 MEMB     143      OSM      C7S      CTL2    -0.180000       12.0110           0
     16707 MEMB     143      OSM      H7S      HAL2     0.900000E-01   1.00800           0
     16708 MEMB     143      OSM      H7T      HAL2     0.900000E-01   1.00800           0
     16709 MEMB     143      OSM      C8S      CTL2    -0.180000       12.0110           0
     16710 MEMB     143      OSM      H8S      HAL2     0.900000E-01   1.00800           0
     16711 MEMB     143      OSM      H8T      HAL2     0.900000E-01   1.00800           0
     16712 MEMB     143      OSM      C9S      CTL2    -0.180000       12.0110           0
     16713 MEMB     143      OSM      H9S      HAL2     0.900000E-01   1.00800           0
     16714 MEMB     143      OSM      H9T      HAL2     0.900000E-01   1.00800           0
     16715 MEMB     143      OSM      C10S     CTL2    -0.180000       12.0110           0
     16716 MEMB     143      OSM      H10S     HAL2     0.900000E-01   1.00800           0
     16717 MEMB     143      OSM      H10T     HAL2     0.900000E-01   1.00800           0
     16718 MEMB     143      OSM      C11S     CTL2    -0.180000       12.0110           0
     16719 MEMB     143      OSM      H11S     HAL2     0.900000E-01   1.00800           0
     16720 MEMB     143      OSM      H11T     HAL2     0.900000E-01   1.00800           0
     16721 MEMB     143      OSM      C12S     CTL2    -0.180000       12.0110           0
     16722 MEMB     143      OSM      H12S     HAL2     0.900000E-01   1.00800           0
     16723 MEMB     143      OSM      H12T     HAL2     0.900000E-01   1.00800           0
     16724 MEMB     143      OSM      C13S     CTL2    -0.180000       12.0110           0
     16725 MEMB     143      OSM      H13S     HAL2     0.900000E-01   1.00800           0
     16726 MEMB     143      OSM      H13T     HAL2     0.900000E-01   1.00800           0
     16727 MEMB     143      OSM      C14S     CTL2    -0.180000       12.0110           0
     16728 MEMB     143      OSM      H14S     HAL2     0.900000E-01   1.00800           0
     16729 MEMB     143      OSM      H14T     HAL2     0.900000E-01   1.00800           0
     16730 MEMB     143      OSM      C15S     CTL2    -0.180000       12.0110           0
     16731 MEMB     143      OSM      H15S     HAL2     0.900000E-01   1.00800           0
     16732 MEMB     143      OSM      H15T     HAL2     0.900000E-01   1.00800           0
     16733 MEMB     143      OSM      C16S     CTL2    -0.180000       12.0110           0
     16734 MEMB     143      OSM      H16S     HAL2     0.900000E-01   1.00800           0
     16735 MEMB     143      OSM      H16T     HAL2     0.900000E-01   1.00800           0
     16736 MEMB     143      OSM      C17S     CTL2    -0.180000       12.0110           0
     16737 MEMB     143      OSM      H17S     HAL2     0.900000E-01   1.00800           0
     16738 MEMB     143      OSM      H17T     HAL2     0.900000E-01   1.00800           0
     16739 MEMB     143      OSM      C18S     CTL3    -0.270000       12.0110           0
     16740 MEMB     143      OSM      H18S     HAL3     0.900000E-01   1.00800           0
     16741 MEMB     143      OSM      H18T     HAL3     0.900000E-01   1.00800           0
     16742 MEMB     143      OSM      H18U     HAL3     0.900000E-01   1.00800           0
     16743 MEMB     143      OSM      C1F      C        0.550000       12.0110           0
     16744 MEMB     143      OSM      OF       O       -0.600000       15.9994           0
     16745 MEMB     143      OSM      C2F      CTL2    -0.700000E-01   12.0110           0
     16746 MEMB     143      OSM      H2F      HAL2     0.600000E-01   1.00800           0
     16747 MEMB     143      OSM      H2G      HAL2     0.600000E-01   1.00800           0
     16748 MEMB     143      OSM      C3F      CTL2    -0.180000       12.0110           0
     16749 MEMB     143      OSM      H3F      HAL2     0.900000E-01   1.00800           0
     16750 MEMB     143      OSM      H3G      HAL2     0.900000E-01   1.00800           0
     16751 MEMB     143      OSM      C4F      CTL2    -0.180000       12.0110           0
     16752 MEMB     143      OSM      H4F      HAL2     0.900000E-01   1.00800           0
     16753 MEMB     143      OSM      H4G      HAL2     0.900000E-01   1.00800           0
     16754 MEMB     143      OSM      C5F      CTL2    -0.180000       12.0110           0
     16755 MEMB     143      OSM      H5F      HAL2     0.900000E-01   1.00800           0
     16756 MEMB     143      OSM      H5G      HAL2     0.900000E-01   1.00800           0
     16757 MEMB     143      OSM      C6F      CTL2    -0.180000       12.0110           0
     16758 MEMB     143      OSM      H6F      HAL2     0.900000E-01   1.00800           0
     16759 MEMB     143      OSM      H6G      HAL2     0.900000E-01   1.00800           0
     16760 MEMB     143      OSM      C7F      CTL2    -0.180000       12.0110           0
     16761 MEMB     143      OSM      H7F      HAL2     0.900000E-01   1.00800           0
     16762 MEMB     143      OSM      H7G      HAL2     0.900000E-01   1.00800           0
     16763 MEMB     143      OSM      C8F      CTL2    -0.180000       12.0110           0
     16764 MEMB     143      OSM      H8F      HAL2     0.900000E-01   1.00800           0
     16765 MEMB     143      OSM      H8G      HAL2     0.900000E-01   1.00800           0
     16766 MEMB     143      OSM      C9F      CEL1    -0.150000       12.0110           0
     16767 MEMB     143      OSM      H9F      HEL1     0.150000       1.00800           0
     16768 MEMB     143      OSM      C10F     CEL1    -0.150000       12.0110           0
     16769 MEMB     143      OSM      H10F     HEL1     0.150000       1.00800           0
     16770 MEMB     143      OSM      C11F     CTL2    -0.180000       12.0110           0
     16771 MEMB     143      OSM      H11F     HAL2     0.900000E-01   1.00800           0
     16772 MEMB     143      OSM      H11G     HAL2     0.900000E-01   1.00800           0
     16773 MEMB     143      OSM      C12F     CTL2    -0.180000       12.0110           0
     16774 MEMB     143      OSM      H12F     HAL2     0.900000E-01   1.00800           0
     16775 MEMB     143      OSM      H12G     HAL2     0.900000E-01   1.00800           0
     16776 MEMB     143      OSM      C13F     CTL2    -0.180000       12.0110           0
     16777 MEMB     143      OSM      H13F     HAL2     0.900000E-01   1.00800           0
     16778 MEMB     143      OSM      H13G     HAL2     0.900000E-01   1.00800           0
     16779 MEMB     143      OSM      C14F     CTL2    -0.180000       12.0110           0
     16780 MEMB     143      OSM      H14F     HAL2     0.900000E-01   1.00800           0
     16781 MEMB     143      OSM      H14G     HAL2     0.900000E-01   1.00800           0
     16782 MEMB     143      OSM      C15F     CTL2    -0.180000       12.0110           0
     16783 MEMB     143      OSM      H15F     HAL2     0.900000E-01   1.00800           0
     16784 MEMB     143      OSM      H15G     HAL2     0.900000E-01   1.00800           0
     16785 MEMB     143      OSM      C16F     CTL2    -0.180000       12.0110           0
     16786 MEMB     143      OSM      H16F     HAL2     0.900000E-01   1.00800           0
     16787 MEMB     143      OSM      H16G     HAL2     0.900000E-01   1.00800           0
     16788 MEMB     143      OSM      C17F     CTL2    -0.180000       12.0110           0
     16789 MEMB     143      OSM      H17F     HAL2     0.900000E-01   1.00800           0
     16790 MEMB     143      OSM      H17G     HAL2     0.900000E-01   1.00800           0
     16791 MEMB     143      OSM      C18F     CTL3    -0.270000       12.0110           0
     16792 MEMB     143      OSM      H18F     HAL3     0.900000E-01   1.00800           0
     16793 MEMB     143      OSM      H18G     HAL3     0.900000E-01   1.00800           0
     16794 MEMB     143      OSM      H18H     HAL3     0.900000E-01   1.00800           0
     16795 MEMB     144      CHL1     C3       CRL1     0.140000       12.0110           0
     16796 MEMB     144      CHL1     H3       HGA1     0.900000E-01   1.00800           0
     16797 MEMB     144      CHL1     O3       OHL     -0.660000       15.9994           0
     16798 MEMB     144      CHL1     H3'      HOL      0.430000       1.00800           0
     16799 MEMB     144      CHL1     C4       CRL2    -0.180000       12.0110           0
     16800 MEMB     144      CHL1     H4A      HGA2     0.900000E-01   1.00800           0
     16801 MEMB     144      CHL1     H4B      HGA2     0.900000E-01   1.00800           0
     16802 MEMB     144      CHL1     C5       CEL1      0.00000       12.0110           0
     16803 MEMB     144      CHL1     C6       CEL1    -0.150000       12.0110           0
     16804 MEMB     144      CHL1     H6       HEL1     0.150000       1.00800           0
     16805 MEMB     144      CHL1     C7       CRL2    -0.180000       12.0110           0
     16806 MEMB     144      CHL1     H7A      HGA2     0.900000E-01   1.00800           0
     16807 MEMB     144      CHL1     H7B      HGA2     0.900000E-01   1.00800           0
     16808 MEMB     144      CHL1     C8       CRL1    -0.900000E-01   12.0110           0
     16809 MEMB     144      CHL1     H8       HGA1     0.900000E-01   1.00800           0
     16810 MEMB     144      CHL1     C14      CRL1    -0.900000E-01   12.0110           0
     16811 MEMB     144      CHL1     H14      HGA1     0.900000E-01   1.00800           0
     16812 MEMB     144      CHL1     C15      CRL2    -0.180000       12.0110           0
     16813 MEMB     144      CHL1     H15A     HGA2     0.900000E-01   1.00800           0
     16814 MEMB     144      CHL1     H15B     HGA2     0.900000E-01   1.00800           0
     16815 MEMB     144      CHL1     C16      CRL2    -0.180000       12.0110           0
     16816 MEMB     144      CHL1     H16A     HGA2     0.900000E-01   1.00800           0
     16817 MEMB     144      CHL1     H16B     HGA2     0.900000E-01   1.00800           0
     16818 MEMB     144      CHL1     C17      CRL1    -0.900000E-01   12.0110           0
     16819 MEMB     144      CHL1     H17      HGA1     0.900000E-01   1.00800           0
     16820 MEMB     144      CHL1     C13      CRL1      0.00000       12.0110           0
     16821 MEMB     144      CHL1     C18      CTL3    -0.270000       12.0110           0
     16822 MEMB     144      CHL1     H18A     HAL3     0.900000E-01   1.00800           0
     16823 MEMB     144      CHL1     H18B     HAL3     0.900000E-01   1.00800           0
     16824 MEMB     144      CHL1     H18C     HAL3     0.900000E-01   1.00800           0
     16825 MEMB     144      CHL1     C12      CRL2    -0.180000       12.0110           0
     16826 MEMB     144      CHL1     H12A     HGA2     0.900000E-01   1.00800           0
     16827 MEMB     144      CHL1     H12B     HGA2     0.900000E-01   1.00800           0
     16828 MEMB     144      CHL1     C11      CRL2    -0.180000       12.0110           0
     16829 MEMB     144      CHL1     H11A     HGA2     0.900000E-01   1.00800           0
     16830 MEMB     144      CHL1     H11B     HGA2     0.900000E-01   1.00800           0
     16831 MEMB     144      CHL1     C9       CRL1    -0.900000E-01   12.0110           0
     16832 MEMB     144      CHL1     H9       HGA1     0.900000E-01   1.00800           0
     16833 MEMB     144      CHL1     C10      CRL1      0.00000       12.0110           0
     16834 MEMB     144      CHL1     C19      CTL3    -0.270000       12.0110           0
     16835 MEMB     144      CHL1     H19A     HAL3     0.900000E-01   1.00800           0
     16836 MEMB     144      CHL1     H19B     HAL3     0.900000E-01   1.00800           0
     16837 MEMB     144      CHL1     H19C     HAL3     0.900000E-01   1.00800           0
     16838 MEMB     144      CHL1     C1       CRL2    -0.180000       12.0110           0
     16839 MEMB     144      CHL1     H1A      HGA2     0.900000E-01   1.00800           0
     16840 MEMB     144      CHL1     H1B      HGA2     0.900000E-01   1.00800           0
     16841 MEMB     144      CHL1     C2       CRL2    -0.180000       12.0110           0
     16842 MEMB     144      CHL1     H2A      HGA2     0.900000E-01   1.00800           0
     16843 MEMB     144      CHL1     H2B      HGA2     0.900000E-01   1.00800           0
     16844 MEMB     144      CHL1     C20      CTL1    -0.900000E-01   12.0110           0
     16845 MEMB     144      CHL1     H20      HAL1     0.900000E-01   1.00800           0
     16846 MEMB     144      CHL1     C21      CTL3    -0.270000       12.0110           0
     16847 MEMB     144      CHL1     H21A     HAL3     0.900000E-01   1.00800           0
     16848 MEMB     144      CHL1     H21B     HAL3     0.900000E-01   1.00800           0
     16849 MEMB     144      CHL1     H21C     HAL3     0.900000E-01   1.00800           0
     16850 MEMB     144      CHL1     C22      CTL2    -0.180000       12.0110           0
     16851 MEMB     144      CHL1     H22A     HAL2     0.900000E-01   1.00800           0
     16852 MEMB     144      CHL1     H22B     HAL2     0.900000E-01   1.00800           0
     16853 MEMB     144      CHL1     C23      CTL2    -0.180000       12.0110           0
     16854 MEMB     144      CHL1     H23A     HAL2     0.900000E-01   1.00800           0
     16855 MEMB     144      CHL1     H23B     HAL2     0.900000E-01   1.00800           0
     16856 MEMB     144      CHL1     C24      CTL2    -0.180000       12.0110           0
     16857 MEMB     144      CHL1     H24A     HAL2     0.900000E-01   1.00800           0
     16858 MEMB     144      CHL1     H24B     HAL2     0.900000E-01   1.00800           0
     16859 MEMB     144      CHL1     C25      CTL1    -0.900000E-01   12.0110           0
     16860 MEMB     144      CHL1     H25      HAL1     0.900000E-01   1.00800           0
     16861 MEMB     144      CHL1     C26      CTL3    -0.270000       12.0110           0
     16862 MEMB     144      CHL1     H26A     HAL3     0.900000E-01   1.00800           0
     16863 MEMB     144      CHL1     H26B     HAL3     0.900000E-01   1.00800           0
     16864 MEMB     144      CHL1     H26C     HAL3     0.900000E-01   1.00800           0
     16865 MEMB     144      CHL1     C27      CTL3    -0.270000       12.0110           0
     16866 MEMB     144      CHL1     H27A     HAL3     0.900000E-01   1.00800           0
     16867 MEMB     144      CHL1     H27B     HAL3     0.900000E-01   1.00800           0
     16868 MEMB     144      CHL1     H27C     HAL3     0.900000E-01   1.00800           0
     16869 MEMB     145      CHL1     C3       CRL1     0.140000       12.0110           0
     16870 MEMB     145      CHL1     H3       HGA1     0.900000E-01   1.00800           0
     16871 MEMB     145      CHL1     O3       OHL     -0.660000       15.9994           0
     16872 MEMB     145      CHL1     H3'      HOL      0.430000       1.00800           0
     16873 MEMB     145      CHL1     C4       CRL2    -0.180000       12.0110           0
     16874 MEMB     145      CHL1     H4A      HGA2     0.900000E-01   1.00800           0
     16875 MEMB     145      CHL1     H4B      HGA2     0.900000E-01   1.00800           0
     16876 MEMB     145      CHL1     C5       CEL1      0.00000       12.0110           0
     16877 MEMB     145      CHL1     C6       CEL1    -0.150000       12.0110           0
     16878 MEMB     145      CHL1     H6       HEL1     0.150000       1.00800           0
     16879 MEMB     145      CHL1     C7       CRL2    -0.180000       12.0110           0
     16880 MEMB     145      CHL1     H7A      HGA2     0.900000E-01   1.00800           0
     16881 MEMB     145      CHL1     H7B      HGA2     0.900000E-01   1.00800           0
     16882 MEMB     145      CHL1     C8       CRL1    -0.900000E-01   12.0110           0
     16883 MEMB     145      CHL1     H8       HGA1     0.900000E-01   1.00800           0
     16884 MEMB     145      CHL1     C14      CRL1    -0.900000E-01   12.0110           0
     16885 MEMB     145      CHL1     H14      HGA1     0.900000E-01   1.00800           0
     16886 MEMB     145      CHL1     C15      CRL2    -0.180000       12.0110           0
     16887 MEMB     145      CHL1     H15A     HGA2     0.900000E-01   1.00800           0
     16888 MEMB     145      CHL1     H15B     HGA2     0.900000E-01   1.00800           0
     16889 MEMB     145      CHL1     C16      CRL2    -0.180000       12.0110           0
     16890 MEMB     145      CHL1     H16A     HGA2     0.900000E-01   1.00800           0
     16891 MEMB     145      CHL1     H16B     HGA2     0.900000E-01   1.00800           0
     16892 MEMB     145      CHL1     C17      CRL1    -0.900000E-01   12.0110           0
     16893 MEMB     145      CHL1     H17      HGA1     0.900000E-01   1.00800           0
     16894 MEMB     145      CHL1     C13      CRL1      0.00000       12.0110           0
     16895 MEMB     145      CHL1     C18      CTL3    -0.270000       12.0110           0
     16896 MEMB     145      CHL1     H18A     HAL3     0.900000E-01   1.00800           0
     16897 MEMB     145      CHL1     H18B     HAL3     0.900000E-01   1.00800           0
     16898 MEMB     145      CHL1     H18C     HAL3     0.900000E-01   1.00800           0
     16899 MEMB     145      CHL1     C12      CRL2    -0.180000       12.0110           0
     16900 MEMB     145      CHL1     H12A     HGA2     0.900000E-01   1.00800           0
     16901 MEMB     145      CHL1     H12B     HGA2     0.900000E-01   1.00800           0
     16902 MEMB     145      CHL1     C11      CRL2    -0.180000       12.0110           0
     16903 MEMB     145      CHL1     H11A     HGA2     0.900000E-01   1.00800           0
     16904 MEMB     145      CHL1     H11B     HGA2     0.900000E-01   1.00800           0
     16905 MEMB     145      CHL1     C9       CRL1    -0.900000E-01   12.0110           0
     16906 MEMB     145      CHL1     H9       HGA1     0.900000E-01   1.00800           0
     16907 MEMB     145      CHL1     C10      CRL1      0.00000       12.0110           0
     16908 MEMB     145      CHL1     C19      CTL3    -0.270000       12.0110           0
     16909 MEMB     145      CHL1     H19A     HAL3     0.900000E-01   1.00800           0
     16910 MEMB     145      CHL1     H19B     HAL3     0.900000E-01   1.00800           0
     16911 MEMB     145      CHL1     H19C     HAL3     0.900000E-01   1.00800           0
     16912 MEMB     145      CHL1     C1       CRL2    -0.180000       12.0110           0
     16913 MEMB     145      CHL1     H1A      HGA2     0.900000E-01   1.00800           0
     16914 MEMB     145      CHL1     H1B      HGA2     0.900000E-01   1.00800           0
     16915 MEMB     145      CHL1     C2       CRL2    -0.180000       12.0110           0
     16916 MEMB     145      CHL1     H2A      HGA2     0.900000E-01   1.00800           0
     16917 MEMB     145      CHL1     H2B      HGA2     0.900000E-01   1.00800           0
     16918 MEMB     145      CHL1     C20      CTL1    -0.900000E-01   12.0110           0
     16919 MEMB     145      CHL1     H20      HAL1     0.900000E-01   1.00800           0
     16920 MEMB     145      CHL1     C21      CTL3    -0.270000       12.0110           0
     16921 MEMB     145      CHL1     H21A     HAL3     0.900000E-01   1.00800           0
     16922 MEMB     145      CHL1     H21B     HAL3     0.900000E-01   1.00800           0
     16923 MEMB     145      CHL1     H21C     HAL3     0.900000E-01   1.00800           0
     16924 MEMB     145      CHL1     C22      CTL2    -0.180000       12.0110           0
     16925 MEMB     145      CHL1     H22A     HAL2     0.900000E-01   1.00800           0
     16926 MEMB     145      CHL1     H22B     HAL2     0.900000E-01   1.00800           0
     16927 MEMB     145      CHL1     C23      CTL2    -0.180000       12.0110           0
     16928 MEMB     145      CHL1     H23A     HAL2     0.900000E-01   1.00800           0
     16929 MEMB     145      CHL1     H23B     HAL2     0.900000E-01   1.00800           0
     16930 MEMB     145      CHL1     C24      CTL2    -0.180000       12.0110           0
     16931 MEMB     145      CHL1     H24A     HAL2     0.900000E-01   1.00800           0
     16932 MEMB     145      CHL1     H24B     HAL2     0.900000E-01   1.00800           0
     16933 MEMB     145      CHL1     C25      CTL1    -0.900000E-01   12.0110           0
     16934 MEMB     145      CHL1     H25      HAL1     0.900000E-01   1.00800           0
     16935 MEMB     145      CHL1     C26      CTL3    -0.270000       12.0110           0
     16936 MEMB     145      CHL1     H26A     HAL3     0.900000E-01   1.00800           0
     16937 MEMB     145      CHL1     H26B     HAL3     0.900000E-01   1.00800           0
     16938 MEMB     145      CHL1     H26C     HAL3     0.900000E-01   1.00800           0
     16939 MEMB     145      CHL1     C27      CTL3    -0.270000       12.0110           0
     16940 MEMB     145      CHL1     H27A     HAL3     0.900000E-01   1.00800           0
     16941 MEMB     145      CHL1     H27B     HAL3     0.900000E-01   1.00800           0
     16942 MEMB     145      CHL1     H27C     HAL3     0.900000E-01   1.00800           0
     16943 MEMB     146      CHL1     C3       CRL1     0.140000       12.0110           0
     16944 MEMB     146      CHL1     H3       HGA1     0.900000E-01   1.00800           0
     16945 MEMB     146      CHL1     O3       OHL     -0.660000       15.9994           0
     16946 MEMB     146      CHL1     H3'      HOL      0.430000       1.00800           0
     16947 MEMB     146      CHL1     C4       CRL2    -0.180000       12.0110           0
     16948 MEMB     146      CHL1     H4A      HGA2     0.900000E-01   1.00800           0
     16949 MEMB     146      CHL1     H4B      HGA2     0.900000E-01   1.00800           0
     16950 MEMB     146      CHL1     C5       CEL1      0.00000       12.0110           0
     16951 MEMB     146      CHL1     C6       CEL1    -0.150000       12.0110           0
     16952 MEMB     146      CHL1     H6       HEL1     0.150000       1.00800           0
     16953 MEMB     146      CHL1     C7       CRL2    -0.180000       12.0110           0
     16954 MEMB     146      CHL1     H7A      HGA2     0.900000E-01   1.00800           0
     16955 MEMB     146      CHL1     H7B      HGA2     0.900000E-01   1.00800           0
     16956 MEMB     146      CHL1     C8       CRL1    -0.900000E-01   12.0110           0
     16957 MEMB     146      CHL1     H8       HGA1     0.900000E-01   1.00800           0
     16958 MEMB     146      CHL1     C14      CRL1    -0.900000E-01   12.0110           0
     16959 MEMB     146      CHL1     H14      HGA1     0.900000E-01   1.00800           0
     16960 MEMB     146      CHL1     C15      CRL2    -0.180000       12.0110           0
     16961 MEMB     146      CHL1     H15A     HGA2     0.900000E-01   1.00800           0
     16962 MEMB     146      CHL1     H15B     HGA2     0.900000E-01   1.00800           0
     16963 MEMB     146      CHL1     C16      CRL2    -0.180000       12.0110           0
     16964 MEMB     146      CHL1     H16A     HGA2     0.900000E-01   1.00800           0
     16965 MEMB     146      CHL1     H16B     HGA2     0.900000E-01   1.00800           0
     16966 MEMB     146      CHL1     C17      CRL1    -0.900000E-01   12.0110           0
     16967 MEMB     146      CHL1     H17      HGA1     0.900000E-01   1.00800           0
     16968 MEMB     146      CHL1     C13      CRL1      0.00000       12.0110           0
     16969 MEMB     146      CHL1     C18      CTL3    -0.270000       12.0110           0
     16970 MEMB     146      CHL1     H18A     HAL3     0.900000E-01   1.00800           0
     16971 MEMB     146      CHL1     H18B     HAL3     0.900000E-01   1.00800           0
     16972 MEMB     146      CHL1     H18C     HAL3     0.900000E-01   1.00800           0
     16973 MEMB     146      CHL1     C12      CRL2    -0.180000       12.0110           0
     16974 MEMB     146      CHL1     H12A     HGA2     0.900000E-01   1.00800           0
     16975 MEMB     146      CHL1     H12B     HGA2     0.900000E-01   1.00800           0
     16976 MEMB     146      CHL1     C11      CRL2    -0.180000       12.0110           0
     16977 MEMB     146      CHL1     H11A     HGA2     0.900000E-01   1.00800           0
     16978 MEMB     146      CHL1     H11B     HGA2     0.900000E-01   1.00800           0
     16979 MEMB     146      CHL1     C9       CRL1    -0.900000E-01   12.0110           0
     16980 MEMB     146      CHL1     H9       HGA1     0.900000E-01   1.00800           0
     16981 MEMB     146      CHL1     C10      CRL1      0.00000       12.0110           0
     16982 MEMB     146      CHL1     C19      CTL3    -0.270000       12.0110           0
     16983 MEMB     146      CHL1     H19A     HAL3     0.900000E-01   1.00800           0
     16984 MEMB     146      CHL1     H19B     HAL3     0.900000E-01   1.00800           0
     16985 MEMB     146      CHL1     H19C     HAL3     0.900000E-01   1.00800           0
     16986 MEMB     146      CHL1     C1       CRL2    -0.180000       12.0110           0
     16987 MEMB     146      CHL1     H1A      HGA2     0.900000E-01   1.00800           0
     16988 MEMB     146      CHL1     H1B      HGA2     0.900000E-01   1.00800           0
     16989 MEMB     146      CHL1     C2       CRL2    -0.180000       12.0110           0
     16990 MEMB     146      CHL1     H2A      HGA2     0.900000E-01   1.00800           0
     16991 MEMB     146      CHL1     H2B      HGA2     0.900000E-01   1.00800           0
     16992 MEMB     146      CHL1     C20      CTL1    -0.900000E-01   12.0110           0
     16993 MEMB     146      CHL1     H20      HAL1     0.900000E-01   1.00800           0
     16994 MEMB     146      CHL1     C21      CTL3    -0.270000       12.0110           0
     16995 MEMB     146      CHL1     H21A     HAL3     0.900000E-01   1.00800           0
     16996 MEMB     146      CHL1     H21B     HAL3     0.900000E-01   1.00800           0
     16997 MEMB     146      CHL1     H21C     HAL3     0.900000E-01   1.00800           0
     16998 MEMB     146      CHL1     C22      CTL2    -0.180000       12.0110           0
     16999 MEMB     146      CHL1     H22A     HAL2     0.900000E-01   1.00800           0
     17000 MEMB     146      CHL1     H22B     HAL2     0.900000E-01   1.00800           0
     17001 MEMB     146      CHL1     C23      CTL2    -0.180000       12.0110           0
     17002 MEMB     146      CHL1     H23A     HAL2     0.900000E-01   1.00800           0
     17003 MEMB     146      CHL1     H23B     HAL2     0.900000E-01   1.00800           0
     17004 MEMB     146      CHL1     C24      CTL2    -0.180000       12.0110           0
     17005 MEMB     146      CHL1     H24A     HAL2     0.900000E-01   1.00800           0
     17006 MEMB     146      CHL1     H24B     HAL2     0.900000E-01   1.00800           0
     17007 MEMB     146      CHL1     C25      CTL1    -0.900000E-01   12.0110           0
     17008 MEMB     146      CHL1     H25      HAL1     0.900000E-01   1.00800           0
     17009 MEMB     146      CHL1     C26      CTL3    -0.270000       12.0110           0
     17010 MEMB     146      CHL1     H26A     HAL3     0.900000E-01   1.00800           0
     17011 MEMB     146      CHL1     H26B     HAL3     0.900000E-01   1.00800           0
     17012 MEMB     146      CHL1     H26C     HAL3     0.900000E-01   1.00800           0
     17013 MEMB     146      CHL1     C27      CTL3    -0.270000       12.0110           0
     17014 MEMB     146      CHL1     H27A     HAL3     0.900000E-01   1.00800           0
     17015 MEMB     146      CHL1     H27B     HAL3     0.900000E-01   1.00800           0
     17016 MEMB     146      CHL1     H27C     HAL3     0.900000E-01   1.00800           0
     17017 MEMB     147      CHL1     C3       CRL1     0.140000       12.0110           0
     17018 MEMB     147      CHL1     H3       HGA1     0.900000E-01   1.00800           0
     17019 MEMB     147      CHL1     O3       OHL     -0.660000       15.9994           0
     17020 MEMB     147      CHL1     H3'      HOL      0.430000       1.00800           0
     17021 MEMB     147      CHL1     C4       CRL2    -0.180000       12.0110           0
     17022 MEMB     147      CHL1     H4A      HGA2     0.900000E-01   1.00800           0
     17023 MEMB     147      CHL1     H4B      HGA2     0.900000E-01   1.00800           0
     17024 MEMB     147      CHL1     C5       CEL1      0.00000       12.0110           0
     17025 MEMB     147      CHL1     C6       CEL1    -0.150000       12.0110           0
     17026 MEMB     147      CHL1     H6       HEL1     0.150000       1.00800           0
     17027 MEMB     147      CHL1     C7       CRL2    -0.180000       12.0110           0
     17028 MEMB     147      CHL1     H7A      HGA2     0.900000E-01   1.00800           0
     17029 MEMB     147      CHL1     H7B      HGA2     0.900000E-01   1.00800           0
     17030 MEMB     147      CHL1     C8       CRL1    -0.900000E-01   12.0110           0
     17031 MEMB     147      CHL1     H8       HGA1     0.900000E-01   1.00800           0
     17032 MEMB     147      CHL1     C14      CRL1    -0.900000E-01   12.0110           0
     17033 MEMB     147      CHL1     H14      HGA1     0.900000E-01   1.00800           0
     17034 MEMB     147      CHL1     C15      CRL2    -0.180000       12.0110           0
     17035 MEMB     147      CHL1     H15A     HGA2     0.900000E-01   1.00800           0
     17036 MEMB     147      CHL1     H15B     HGA2     0.900000E-01   1.00800           0
     17037 MEMB     147      CHL1     C16      CRL2    -0.180000       12.0110           0
     17038 MEMB     147      CHL1     H16A     HGA2     0.900000E-01   1.00800           0
     17039 MEMB     147      CHL1     H16B     HGA2     0.900000E-01   1.00800           0
     17040 MEMB     147      CHL1     C17      CRL1    -0.900000E-01   12.0110           0
     17041 MEMB     147      CHL1     H17      HGA1     0.900000E-01   1.00800           0
     17042 MEMB     147      CHL1     C13      CRL1      0.00000       12.0110           0
     17043 MEMB     147      CHL1     C18      CTL3    -0.270000       12.0110           0
     17044 MEMB     147      CHL1     H18A     HAL3     0.900000E-01   1.00800           0
     17045 MEMB     147      CHL1     H18B     HAL3     0.900000E-01   1.00800           0
     17046 MEMB     147      CHL1     H18C     HAL3     0.900000E-01   1.00800           0
     17047 MEMB     147      CHL1     C12      CRL2    -0.180000       12.0110           0
     17048 MEMB     147      CHL1     H12A     HGA2     0.900000E-01   1.00800           0
     17049 MEMB     147      CHL1     H12B     HGA2     0.900000E-01   1.00800           0
     17050 MEMB     147      CHL1     C11      CRL2    -0.180000       12.0110           0
     17051 MEMB     147      CHL1     H11A     HGA2     0.900000E-01   1.00800           0
     17052 MEMB     147      CHL1     H11B     HGA2     0.900000E-01   1.00800           0
     17053 MEMB     147      CHL1     C9       CRL1    -0.900000E-01   12.0110           0
     17054 MEMB     147      CHL1     H9       HGA1     0.900000E-01   1.00800           0
     17055 MEMB     147      CHL1     C10      CRL1      0.00000       12.0110           0
     17056 MEMB     147      CHL1     C19      CTL3    -0.270000       12.0110           0
     17057 MEMB     147      CHL1     H19A     HAL3     0.900000E-01   1.00800           0
     17058 MEMB     147      CHL1     H19B     HAL3     0.900000E-01   1.00800           0
     17059 MEMB     147      CHL1     H19C     HAL3     0.900000E-01   1.00800           0
     17060 MEMB     147      CHL1     C1       CRL2    -0.180000       12.0110           0
     17061 MEMB     147      CHL1     H1A      HGA2     0.900000E-01   1.00800           0
     17062 MEMB     147      CHL1     H1B      HGA2     0.900000E-01   1.00800           0
     17063 MEMB     147      CHL1     C2       CRL2    -0.180000       12.0110           0
     17064 MEMB     147      CHL1     H2A      HGA2     0.900000E-01   1.00800           0
     17065 MEMB     147      CHL1     H2B      HGA2     0.900000E-01   1.00800           0
     17066 MEMB     147      CHL1     C20      CTL1    -0.900000E-01   12.0110           0
     17067 MEMB     147      CHL1     H20      HAL1     0.900000E-01   1.00800           0
     17068 MEMB     147      CHL1     C21      CTL3    -0.270000       12.0110           0
     17069 MEMB     147      CHL1     H21A     HAL3     0.900000E-01   1.00800           0
     17070 MEMB     147      CHL1     H21B     HAL3     0.900000E-01   1.00800           0
     17071 MEMB     147      CHL1     H21C     HAL3     0.900000E-01   1.00800           0
     17072 MEMB     147      CHL1     C22      CTL2    -0.180000       12.0110           0
     17073 MEMB     147      CHL1     H22A     HAL2     0.900000E-01   1.00800           0
     17074 MEMB     147      CHL1     H22B     HAL2     0.900000E-01   1.00800           0
     17075 MEMB     147      CHL1     C23      CTL2    -0.180000       12.0110           0
     17076 MEMB     147      CHL1     H23A     HAL2     0.900000E-01   1.00800           0
     17077 MEMB     147      CHL1     H23B     HAL2     0.900000E-01   1.00800           0
     17078 MEMB     147      CHL1     C24      CTL2    -0.180000       12.0110           0
     17079 MEMB     147      CHL1     H24A     HAL2     0.900000E-01   1.00800           0
     17080 MEMB     147      CHL1     H24B     HAL2     0.900000E-01   1.00800           0
     17081 MEMB     147      CHL1     C25      CTL1    -0.900000E-01   12.0110           0
     17082 MEMB     147      CHL1     H25      HAL1     0.900000E-01   1.00800           0
     17083 MEMB     147      CHL1     C26      CTL3    -0.270000       12.0110           0
     17084 MEMB     147      CHL1     H26A     HAL3     0.900000E-01   1.00800           0
     17085 MEMB     147      CHL1     H26B     HAL3     0.900000E-01   1.00800           0
     17086 MEMB     147      CHL1     H26C     HAL3     0.900000E-01   1.00800           0
     17087 MEMB     147      CHL1     C27      CTL3    -0.270000       12.0110           0
     17088 MEMB     147      CHL1     H27A     HAL3     0.900000E-01   1.00800           0
     17089 MEMB     147      CHL1     H27B     HAL3     0.900000E-01   1.00800           0
     17090 MEMB     147      CHL1     H27C     HAL3     0.900000E-01   1.00800           0
     17091 MEMB     148      SAPE     N        NH3L    -0.300000       14.0070           0
     17092 MEMB     148      SAPE     HN1      HCL      0.330000       1.00800           0
     17093 MEMB     148      SAPE     HN2      HCL      0.330000       1.00800           0
     17094 MEMB     148      SAPE     HN3      HCL      0.330000       1.00800           0
     17095 MEMB     148      SAPE     C12      CTL2     0.130000       12.0110           0
     17096 MEMB     148      SAPE     H12A     HAL2     0.900000E-01   1.00800           0
     17097 MEMB     148      SAPE     H12B     HAL2     0.900000E-01   1.00800           0
     17098 MEMB     148      SAPE     C11      CTL2    -0.800000E-01   12.0110           0
     17099 MEMB     148      SAPE     H11A     HAL2     0.900000E-01   1.00800           0
     17100 MEMB     148      SAPE     H11B     HAL2     0.900000E-01   1.00800           0
     17101 MEMB     148      SAPE     P        PL        1.50000       30.9740           0
     17102 MEMB     148      SAPE     O13      O2L     -0.780000       15.9994           0
     17103 MEMB     148      SAPE     O14      O2L     -0.780000       15.9994           0
     17104 MEMB     148      SAPE     O12      OSLP    -0.570000       15.9994           0
     17105 MEMB     148      SAPE     O11      OSLP    -0.570000       15.9994           0
     17106 MEMB     148      SAPE     C1       CTL2    -0.800000E-01   12.0110           0
     17107 MEMB     148      SAPE     HA       HAL2     0.900000E-01   1.00800           0
     17108 MEMB     148      SAPE     HB       HAL2     0.900000E-01   1.00800           0
     17109 MEMB     148      SAPE     C2       CTL1     0.170000       12.0110           0
     17110 MEMB     148      SAPE     HS       HAL1     0.900000E-01   1.00800           0
     17111 MEMB     148      SAPE     O21      OSL     -0.490000       15.9994           0
     17112 MEMB     148      SAPE     C21      CL       0.900000       12.0110           0
     17113 MEMB     148      SAPE     O22      OBL     -0.630000       15.9994           0
     17114 MEMB     148      SAPE     C22      CTL2    -0.220000       12.0110           0
     17115 MEMB     148      SAPE     H2R      HAL2     0.900000E-01   1.00800           0
     17116 MEMB     148      SAPE     H2S      HAL2     0.900000E-01   1.00800           0
     17117 MEMB     148      SAPE     C3       CTL2     0.800000E-01   12.0110           0
     17118 MEMB     148      SAPE     HX       HAL2     0.900000E-01   1.00800           0
     17119 MEMB     148      SAPE     HY       HAL2     0.900000E-01   1.00800           0
     17120 MEMB     148      SAPE     O31      OSL     -0.490000       15.9994           0
     17121 MEMB     148      SAPE     C31      CL       0.900000       12.0110           0
     17122 MEMB     148      SAPE     O32      OBL     -0.630000       15.9994           0
     17123 MEMB     148      SAPE     C32      CTL2    -0.220000       12.0110           0
     17124 MEMB     148      SAPE     H2X      HAL2     0.900000E-01   1.00800           0
     17125 MEMB     148      SAPE     H2Y      HAL2     0.900000E-01   1.00800           0
     17126 MEMB     148      SAPE     C23      CTL2    -0.180000       12.0110           0
     17127 MEMB     148      SAPE     H3R      HAL2     0.900000E-01   1.00800           0
     17128 MEMB     148      SAPE     H3S      HAL2     0.900000E-01   1.00800           0
     17129 MEMB     148      SAPE     C24      CTL2    -0.180000       12.0110           0
     17130 MEMB     148      SAPE     H4R      HAL2     0.900000E-01   1.00800           0
     17131 MEMB     148      SAPE     H4S      HAL2     0.900000E-01   1.00800           0
     17132 MEMB     148      SAPE     C25      CEL1    -0.150000       12.0110           0
     17133 MEMB     148      SAPE     H5R      HEL1     0.150000       1.00800           0
     17134 MEMB     148      SAPE     C26      CEL1    -0.150000       12.0110           0
     17135 MEMB     148      SAPE     H6R      HEL1     0.150000       1.00800           0
     17136 MEMB     148      SAPE     C27      CTL2    -0.180000       12.0110           0
     17137 MEMB     148      SAPE     H7R      HAL2     0.900000E-01   1.00800           0
     17138 MEMB     148      SAPE     H7S      HAL2     0.900000E-01   1.00800           0
     17139 MEMB     148      SAPE     C28      CEL1    -0.150000       12.0110           0
     17140 MEMB     148      SAPE     H8R      HEL1     0.150000       1.00800           0
     17141 MEMB     148      SAPE     C29      CEL1    -0.150000       12.0110           0
     17142 MEMB     148      SAPE     H9R      HEL1     0.150000       1.00800           0
     17143 MEMB     148      SAPE     C210     CTL2    -0.180000       12.0110           0
     17144 MEMB     148      SAPE     H10R     HAL2     0.900000E-01   1.00800           0
     17145 MEMB     148      SAPE     H10S     HAL2     0.900000E-01   1.00800           0
     17146 MEMB     148      SAPE     C211     CEL1    -0.150000       12.0110           0
     17147 MEMB     148      SAPE     H11R     HEL1     0.150000       1.00800           0
     17148 MEMB     148      SAPE     C212     CEL1    -0.150000       12.0110           0
     17149 MEMB     148      SAPE     H12R     HEL1     0.150000       1.00800           0
     17150 MEMB     148      SAPE     C213     CTL2    -0.180000       12.0110           0
     17151 MEMB     148      SAPE     H13R     HAL2     0.900000E-01   1.00800           0
     17152 MEMB     148      SAPE     H13S     HAL2     0.900000E-01   1.00800           0
     17153 MEMB     148      SAPE     C214     CEL1    -0.150000       12.0110           0
     17154 MEMB     148      SAPE     H14R     HEL1     0.150000       1.00800           0
     17155 MEMB     148      SAPE     C215     CEL1    -0.150000       12.0110           0
     17156 MEMB     148      SAPE     H15R     HEL1     0.150000       1.00800           0
     17157 MEMB     148      SAPE     C216     CTL2    -0.180000       12.0110           0
     17158 MEMB     148      SAPE     H16R     HAL2     0.900000E-01   1.00800           0
     17159 MEMB     148      SAPE     H16S     HAL2     0.900000E-01   1.00800           0
     17160 MEMB     148      SAPE     C217     CTL2    -0.180000       12.0110           0
     17161 MEMB     148      SAPE     H17R     HAL2     0.900000E-01   1.00800           0
     17162 MEMB     148      SAPE     H17S     HAL2     0.900000E-01   1.00800           0
     17163 MEMB     148      SAPE     C218     CTL2    -0.180000       12.0110           0
     17164 MEMB     148      SAPE     H18R     HAL2     0.900000E-01   1.00800           0
     17165 MEMB     148      SAPE     H18S     HAL2     0.900000E-01   1.00800           0
     17166 MEMB     148      SAPE     C219     CTL2    -0.180000       12.0110           0
     17167 MEMB     148      SAPE     H19R     HAL2     0.900000E-01   1.00800           0
     17168 MEMB     148      SAPE     H19S     HAL2     0.900000E-01   1.00800           0
     17169 MEMB     148      SAPE     C220     CTL3    -0.270000       12.0110           0
     17170 MEMB     148      SAPE     H20R     HAL3     0.900000E-01   1.00800           0
     17171 MEMB     148      SAPE     H20S     HAL3     0.900000E-01   1.00800           0
     17172 MEMB     148      SAPE     H20T     HAL3     0.900000E-01   1.00800           0
     17173 MEMB     148      SAPE     C33      CTL2    -0.180000       12.0110           0
     17174 MEMB     148      SAPE     H3X      HAL2     0.900000E-01   1.00800           0
     17175 MEMB     148      SAPE     H3Y      HAL2     0.900000E-01   1.00800           0
     17176 MEMB     148      SAPE     C34      CTL2    -0.180000       12.0110           0
     17177 MEMB     148      SAPE     H4X      HAL2     0.900000E-01   1.00800           0
     17178 MEMB     148      SAPE     H4Y      HAL2     0.900000E-01   1.00800           0
     17179 MEMB     148      SAPE     C35      CTL2    -0.180000       12.0110           0
     17180 MEMB     148      SAPE     H5X      HAL2     0.900000E-01   1.00800           0
     17181 MEMB     148      SAPE     H5Y      HAL2     0.900000E-01   1.00800           0
     17182 MEMB     148      SAPE     C36      CTL2    -0.180000       12.0110           0
     17183 MEMB     148      SAPE     H6X      HAL2     0.900000E-01   1.00800           0
     17184 MEMB     148      SAPE     H6Y      HAL2     0.900000E-01   1.00800           0
     17185 MEMB     148      SAPE     C37      CTL2    -0.180000       12.0110           0
     17186 MEMB     148      SAPE     H7X      HAL2     0.900000E-01   1.00800           0
     17187 MEMB     148      SAPE     H7Y      HAL2     0.900000E-01   1.00800           0
     17188 MEMB     148      SAPE     C38      CTL2    -0.180000       12.0110           0
     17189 MEMB     148      SAPE     H8X      HAL2     0.900000E-01   1.00800           0
     17190 MEMB     148      SAPE     H8Y      HAL2     0.900000E-01   1.00800           0
     17191 MEMB     148      SAPE     C39      CTL2    -0.180000       12.0110           0
     17192 MEMB     148      SAPE     H9X      HAL2     0.900000E-01   1.00800           0
     17193 MEMB     148      SAPE     H9Y      HAL2     0.900000E-01   1.00800           0
     17194 MEMB     148      SAPE     C310     CTL2    -0.180000       12.0110           0
     17195 MEMB     148      SAPE     H10X     HAL2     0.900000E-01   1.00800           0
     17196 MEMB     148      SAPE     H10Y     HAL2     0.900000E-01   1.00800           0
     17197 MEMB     148      SAPE     C311     CTL2    -0.180000       12.0110           0
     17198 MEMB     148      SAPE     H11X     HAL2     0.900000E-01   1.00800           0
     17199 MEMB     148      SAPE     H11Y     HAL2     0.900000E-01   1.00800           0
     17200 MEMB     148      SAPE     C312     CTL2    -0.180000       12.0110           0
     17201 MEMB     148      SAPE     H12X     HAL2     0.900000E-01   1.00800           0
     17202 MEMB     148      SAPE     H12Y     HAL2     0.900000E-01   1.00800           0
     17203 MEMB     148      SAPE     C313     CTL2    -0.180000       12.0110           0
     17204 MEMB     148      SAPE     H13X     HAL2     0.900000E-01   1.00800           0
     17205 MEMB     148      SAPE     H13Y     HAL2     0.900000E-01   1.00800           0
     17206 MEMB     148      SAPE     C314     CTL2    -0.180000       12.0110           0
     17207 MEMB     148      SAPE     H14X     HAL2     0.900000E-01   1.00800           0
     17208 MEMB     148      SAPE     H14Y     HAL2     0.900000E-01   1.00800           0
     17209 MEMB     148      SAPE     C315     CTL2    -0.180000       12.0110           0
     17210 MEMB     148      SAPE     H15X     HAL2     0.900000E-01   1.00800           0
     17211 MEMB     148      SAPE     H15Y     HAL2     0.900000E-01   1.00800           0
     17212 MEMB     148      SAPE     C316     CTL2    -0.180000       12.0110           0
     17213 MEMB     148      SAPE     H16X     HAL2     0.900000E-01   1.00800           0
     17214 MEMB     148      SAPE     H16Y     HAL2     0.900000E-01   1.00800           0
     17215 MEMB     148      SAPE     C317     CTL2    -0.180000       12.0110           0
     17216 MEMB     148      SAPE     H17X     HAL2     0.900000E-01   1.00800           0
     17217 MEMB     148      SAPE     H17Y     HAL2     0.900000E-01   1.00800           0
     17218 MEMB     148      SAPE     C318     CTL3    -0.270000       12.0110           0
     17219 MEMB     148      SAPE     H18X     HAL3     0.900000E-01   1.00800           0
     17220 MEMB     148      SAPE     H18Y     HAL3     0.900000E-01   1.00800           0
     17221 MEMB     148      SAPE     H18Z     HAL3     0.900000E-01   1.00800           0
     17222 MEMB     149      CHL1     C3       CRL1     0.140000       12.0110           0
     17223 MEMB     149      CHL1     H3       HGA1     0.900000E-01   1.00800           0
     17224 MEMB     149      CHL1     O3       OHL     -0.660000       15.9994           0
     17225 MEMB     149      CHL1     H3'      HOL      0.430000       1.00800           0
     17226 MEMB     149      CHL1     C4       CRL2    -0.180000       12.0110           0
     17227 MEMB     149      CHL1     H4A      HGA2     0.900000E-01   1.00800           0
     17228 MEMB     149      CHL1     H4B      HGA2     0.900000E-01   1.00800           0
     17229 MEMB     149      CHL1     C5       CEL1      0.00000       12.0110           0
     17230 MEMB     149      CHL1     C6       CEL1    -0.150000       12.0110           0
     17231 MEMB     149      CHL1     H6       HEL1     0.150000       1.00800           0
     17232 MEMB     149      CHL1     C7       CRL2    -0.180000       12.0110           0
     17233 MEMB     149      CHL1     H7A      HGA2     0.900000E-01   1.00800           0
     17234 MEMB     149      CHL1     H7B      HGA2     0.900000E-01   1.00800           0
     17235 MEMB     149      CHL1     C8       CRL1    -0.900000E-01   12.0110           0
     17236 MEMB     149      CHL1     H8       HGA1     0.900000E-01   1.00800           0
     17237 MEMB     149      CHL1     C14      CRL1    -0.900000E-01   12.0110           0
     17238 MEMB     149      CHL1     H14      HGA1     0.900000E-01   1.00800           0
     17239 MEMB     149      CHL1     C15      CRL2    -0.180000       12.0110           0
     17240 MEMB     149      CHL1     H15A     HGA2     0.900000E-01   1.00800           0
     17241 MEMB     149      CHL1     H15B     HGA2     0.900000E-01   1.00800           0
     17242 MEMB     149      CHL1     C16      CRL2    -0.180000       12.0110           0
     17243 MEMB     149      CHL1     H16A     HGA2     0.900000E-01   1.00800           0
     17244 MEMB     149      CHL1     H16B     HGA2     0.900000E-01   1.00800           0
     17245 MEMB     149      CHL1     C17      CRL1    -0.900000E-01   12.0110           0
     17246 MEMB     149      CHL1     H17      HGA1     0.900000E-01   1.00800           0
     17247 MEMB     149      CHL1     C13      CRL1      0.00000       12.0110           0
     17248 MEMB     149      CHL1     C18      CTL3    -0.270000       12.0110           0
     17249 MEMB     149      CHL1     H18A     HAL3     0.900000E-01   1.00800           0
     17250 MEMB     149      CHL1     H18B     HAL3     0.900000E-01   1.00800           0
     17251 MEMB     149      CHL1     H18C     HAL3     0.900000E-01   1.00800           0
     17252 MEMB     149      CHL1     C12      CRL2    -0.180000       12.0110           0
     17253 MEMB     149      CHL1     H12A     HGA2     0.900000E-01   1.00800           0
     17254 MEMB     149      CHL1     H12B     HGA2     0.900000E-01   1.00800           0
     17255 MEMB     149      CHL1     C11      CRL2    -0.180000       12.0110           0
     17256 MEMB     149      CHL1     H11A     HGA2     0.900000E-01   1.00800           0
     17257 MEMB     149      CHL1     H11B     HGA2     0.900000E-01   1.00800           0
     17258 MEMB     149      CHL1     C9       CRL1    -0.900000E-01   12.0110           0
     17259 MEMB     149      CHL1     H9       HGA1     0.900000E-01   1.00800           0
     17260 MEMB     149      CHL1     C10      CRL1      0.00000       12.0110           0
     17261 MEMB     149      CHL1     C19      CTL3    -0.270000       12.0110           0
     17262 MEMB     149      CHL1     H19A     HAL3     0.900000E-01   1.00800           0
     17263 MEMB     149      CHL1     H19B     HAL3     0.900000E-01   1.00800           0
     17264 MEMB     149      CHL1     H19C     HAL3     0.900000E-01   1.00800           0
     17265 MEMB     149      CHL1     C1       CRL2    -0.180000       12.0110           0
     17266 MEMB     149      CHL1     H1A      HGA2     0.900000E-01   1.00800           0
     17267 MEMB     149      CHL1     H1B      HGA2     0.900000E-01   1.00800           0
     17268 MEMB     149      CHL1     C2       CRL2    -0.180000       12.0110           0
     17269 MEMB     149      CHL1     H2A      HGA2     0.900000E-01   1.00800           0
     17270 MEMB     149      CHL1     H2B      HGA2     0.900000E-01   1.00800           0
     17271 MEMB     149      CHL1     C20      CTL1    -0.900000E-01   12.0110           0
     17272 MEMB     149      CHL1     H20      HAL1     0.900000E-01   1.00800           0
     17273 MEMB     149      CHL1     C21      CTL3    -0.270000       12.0110           0
     17274 MEMB     149      CHL1     H21A     HAL3     0.900000E-01   1.00800           0
     17275 MEMB     149      CHL1     H21B     HAL3     0.900000E-01   1.00800           0
     17276 MEMB     149      CHL1     H21C     HAL3     0.900000E-01   1.00800           0
     17277 MEMB     149      CHL1     C22      CTL2    -0.180000       12.0110           0
     17278 MEMB     149      CHL1     H22A     HAL2     0.900000E-01   1.00800           0
     17279 MEMB     149      CHL1     H22B     HAL2     0.900000E-01   1.00800           0
     17280 MEMB     149      CHL1     C23      CTL2    -0.180000       12.0110           0
     17281 MEMB     149      CHL1     H23A     HAL2     0.900000E-01   1.00800           0
     17282 MEMB     149      CHL1     H23B     HAL2     0.900000E-01   1.00800           0
     17283 MEMB     149      CHL1     C24      CTL2    -0.180000       12.0110           0
     17284 MEMB     149      CHL1     H24A     HAL2     0.900000E-01   1.00800           0
     17285 MEMB     149      CHL1     H24B     HAL2     0.900000E-01   1.00800           0
     17286 MEMB     149      CHL1     C25      CTL1    -0.900000E-01   12.0110           0
     17287 MEMB     149      CHL1     H25      HAL1     0.900000E-01   1.00800           0
     17288 MEMB     149      CHL1     C26      CTL3    -0.270000       12.0110           0
     17289 MEMB     149      CHL1     H26A     HAL3     0.900000E-01   1.00800           0
     17290 MEMB     149      CHL1     H26B     HAL3     0.900000E-01   1.00800           0
     17291 MEMB     149      CHL1     H26C     HAL3     0.900000E-01   1.00800           0
     17292 MEMB     149      CHL1     C27      CTL3    -0.270000       12.0110           0
     17293 MEMB     149      CHL1     H27A     HAL3     0.900000E-01   1.00800           0
     17294 MEMB     149      CHL1     H27B     HAL3     0.900000E-01   1.00800           0
     17295 MEMB     149      CHL1     H27C     HAL3     0.900000E-01   1.00800           0
     17296 MEMB     150      SOPE     N        NH3L    -0.300000       14.0070           0
     17297 MEMB     150      SOPE     HN1      HCL      0.330000       1.00800           0
     17298 MEMB     150      SOPE     HN2      HCL      0.330000       1.00800           0
     17299 MEMB     150      SOPE     HN3      HCL      0.330000       1.00800           0
     17300 MEMB     150      SOPE     C12      CTL2     0.130000       12.0110           0
     17301 MEMB     150      SOPE     H12A     HAL2     0.900000E-01   1.00800           0
     17302 MEMB     150      SOPE     H12B     HAL2     0.900000E-01   1.00800           0
     17303 MEMB     150      SOPE     C11      CTL2    -0.800000E-01   12.0110           0
     17304 MEMB     150      SOPE     H11A     HAL2     0.900000E-01   1.00800           0
     17305 MEMB     150      SOPE     H11B     HAL2     0.900000E-01   1.00800           0
     17306 MEMB     150      SOPE     P        PL        1.50000       30.9740           0
     17307 MEMB     150      SOPE     O13      O2L     -0.780000       15.9994           0
     17308 MEMB     150      SOPE     O14      O2L     -0.780000       15.9994           0
     17309 MEMB     150      SOPE     O12      OSLP    -0.570000       15.9994           0
     17310 MEMB     150      SOPE     O11      OSLP    -0.570000       15.9994           0
     17311 MEMB     150      SOPE     C1       CTL2    -0.800000E-01   12.0110           0
     17312 MEMB     150      SOPE     HA       HAL2     0.900000E-01   1.00800           0
     17313 MEMB     150      SOPE     HB       HAL2     0.900000E-01   1.00800           0
     17314 MEMB     150      SOPE     C2       CTL1     0.170000       12.0110           0
     17315 MEMB     150      SOPE     HS       HAL1     0.900000E-01   1.00800           0
     17316 MEMB     150      SOPE     O21      OSL     -0.490000       15.9994           0
     17317 MEMB     150      SOPE     C21      CL       0.900000       12.0110           0
     17318 MEMB     150      SOPE     O22      OBL     -0.630000       15.9994           0
     17319 MEMB     150      SOPE     C22      CTL2    -0.220000       12.0110           0
     17320 MEMB     150      SOPE     H2R      HAL2     0.900000E-01   1.00800           0
     17321 MEMB     150      SOPE     H2S      HAL2     0.900000E-01   1.00800           0
     17322 MEMB     150      SOPE     C3       CTL2     0.800000E-01   12.0110           0
     17323 MEMB     150      SOPE     HX       HAL2     0.900000E-01   1.00800           0
     17324 MEMB     150      SOPE     HY       HAL2     0.900000E-01   1.00800           0
     17325 MEMB     150      SOPE     O31      OSL     -0.490000       15.9994           0
     17326 MEMB     150      SOPE     C31      CL       0.900000       12.0110           0
     17327 MEMB     150      SOPE     O32      OBL     -0.630000       15.9994           0
     17328 MEMB     150      SOPE     C32      CTL2    -0.220000       12.0110           0
     17329 MEMB     150      SOPE     H2X      HAL2     0.900000E-01   1.00800           0
     17330 MEMB     150      SOPE     H2Y      HAL2     0.900000E-01   1.00800           0
     17331 MEMB     150      SOPE     C23      CTL2    -0.180000       12.0110           0
     17332 MEMB     150      SOPE     H3R      HAL2     0.900000E-01   1.00800           0
     17333 MEMB     150      SOPE     H3S      HAL2     0.900000E-01   1.00800           0
     17334 MEMB     150      SOPE     C24      CTL2    -0.180000       12.0110           0
     17335 MEMB     150      SOPE     H4R      HAL2     0.900000E-01   1.00800           0
     17336 MEMB     150      SOPE     H4S      HAL2     0.900000E-01   1.00800           0
     17337 MEMB     150      SOPE     C25      CTL2    -0.180000       12.0110           0
     17338 MEMB     150      SOPE     H5R      HAL2     0.900000E-01   1.00800           0
     17339 MEMB     150      SOPE     H5S      HAL2     0.900000E-01   1.00800           0
     17340 MEMB     150      SOPE     C26      CTL2    -0.180000       12.0110           0
     17341 MEMB     150      SOPE     H6R      HAL2     0.900000E-01   1.00800           0
     17342 MEMB     150      SOPE     H6S      HAL2     0.900000E-01   1.00800           0
     17343 MEMB     150      SOPE     C27      CTL2    -0.180000       12.0110           0
     17344 MEMB     150      SOPE     H7R      HAL2     0.900000E-01   1.00800           0
     17345 MEMB     150      SOPE     H7S      HAL2     0.900000E-01   1.00800           0
     17346 MEMB     150      SOPE     C28      CTL2    -0.180000       12.0110           0
     17347 MEMB     150      SOPE     H8R      HAL2     0.900000E-01   1.00800           0
     17348 MEMB     150      SOPE     H8S      HAL2     0.900000E-01   1.00800           0
     17349 MEMB     150      SOPE     C29      CEL1    -0.150000       12.0110           0
     17350 MEMB     150      SOPE     H91      HEL1     0.150000       1.00800           0
     17351 MEMB     150      SOPE     C210     CEL1    -0.150000       12.0110           0
     17352 MEMB     150      SOPE     H101     HEL1     0.150000       1.00800           0
     17353 MEMB     150      SOPE     C211     CTL2    -0.180000       12.0110           0
     17354 MEMB     150      SOPE     H11R     HAL2     0.900000E-01   1.00800           0
     17355 MEMB     150      SOPE     H11S     HAL2     0.900000E-01   1.00800           0
     17356 MEMB     150      SOPE     C212     CTL2    -0.180000       12.0110           0
     17357 MEMB     150      SOPE     H12R     HAL2     0.900000E-01   1.00800           0
     17358 MEMB     150      SOPE     H12S     HAL2     0.900000E-01   1.00800           0
     17359 MEMB     150      SOPE     C213     CTL2    -0.180000       12.0110           0
     17360 MEMB     150      SOPE     H13R     HAL2     0.900000E-01   1.00800           0
     17361 MEMB     150      SOPE     H13S     HAL2     0.900000E-01   1.00800           0
     17362 MEMB     150      SOPE     C214     CTL2    -0.180000       12.0110           0
     17363 MEMB     150      SOPE     H14R     HAL2     0.900000E-01   1.00800           0
     17364 MEMB     150      SOPE     H14S     HAL2     0.900000E-01   1.00800           0
     17365 MEMB     150      SOPE     C215     CTL2    -0.180000       12.0110           0
     17366 MEMB     150      SOPE     H15R     HAL2     0.900000E-01   1.00800           0
     17367 MEMB     150      SOPE     H15S     HAL2     0.900000E-01   1.00800           0
     17368 MEMB     150      SOPE     C216     CTL2    -0.180000       12.0110           0
     17369 MEMB     150      SOPE     H16R     HAL2     0.900000E-01   1.00800           0
     17370 MEMB     150      SOPE     H16S     HAL2     0.900000E-01   1.00800           0
     17371 MEMB     150      SOPE     C217     CTL2    -0.180000       12.0110           0
     17372 MEMB     150      SOPE     H17R     HAL2     0.900000E-01   1.00800           0
     17373 MEMB     150      SOPE     H17S     HAL2     0.900000E-01   1.00800           0
     17374 MEMB     150      SOPE     C218     CTL3    -0.270000       12.0110           0
     17375 MEMB     150      SOPE     H18R     HAL3     0.900000E-01   1.00800           0
     17376 MEMB     150      SOPE     H18S     HAL3     0.900000E-01   1.00800           0
     17377 MEMB     150      SOPE     H18T     HAL3     0.900000E-01   1.00800           0
     17378 MEMB     150      SOPE     C33      CTL2    -0.180000       12.0110           0
     17379 MEMB     150      SOPE     H3X      HAL2     0.900000E-01   1.00800           0
     17380 MEMB     150      SOPE     H3Y      HAL2     0.900000E-01   1.00800           0
     17381 MEMB     150      SOPE     C34      CTL2    -0.180000       12.0110           0
     17382 MEMB     150      SOPE     H4X      HAL2     0.900000E-01   1.00800           0
     17383 MEMB     150      SOPE     H4Y      HAL2     0.900000E-01   1.00800           0
     17384 MEMB     150      SOPE     C35      CTL2    -0.180000       12.0110           0
     17385 MEMB     150      SOPE     H5X      HAL2     0.900000E-01   1.00800           0
     17386 MEMB     150      SOPE     H5Y      HAL2     0.900000E-01   1.00800           0
     17387 MEMB     150      SOPE     C36      CTL2    -0.180000       12.0110           0
     17388 MEMB     150      SOPE     H6X      HAL2     0.900000E-01   1.00800           0
     17389 MEMB     150      SOPE     H6Y      HAL2     0.900000E-01   1.00800           0
     17390 MEMB     150      SOPE     C37      CTL2    -0.180000       12.0110           0
     17391 MEMB     150      SOPE     H7X      HAL2     0.900000E-01   1.00800           0
     17392 MEMB     150      SOPE     H7Y      HAL2     0.900000E-01   1.00800           0
     17393 MEMB     150      SOPE     C38      CTL2    -0.180000       12.0110           0
     17394 MEMB     150      SOPE     H8X      HAL2     0.900000E-01   1.00800           0
     17395 MEMB     150      SOPE     H8Y      HAL2     0.900000E-01   1.00800           0
     17396 MEMB     150      SOPE     C39      CTL2    -0.180000       12.0110           0
     17397 MEMB     150      SOPE     H9X      HAL2     0.900000E-01   1.00800           0
     17398 MEMB     150      SOPE     H9Y      HAL2     0.900000E-01   1.00800           0
     17399 MEMB     150      SOPE     C310     CTL2    -0.180000       12.0110           0
     17400 MEMB     150      SOPE     H10X     HAL2     0.900000E-01   1.00800           0
     17401 MEMB     150      SOPE     H10Y     HAL2     0.900000E-01   1.00800           0
     17402 MEMB     150      SOPE     C311     CTL2    -0.180000       12.0110           0
     17403 MEMB     150      SOPE     H11X     HAL2     0.900000E-01   1.00800           0
     17404 MEMB     150      SOPE     H11Y     HAL2     0.900000E-01   1.00800           0
     17405 MEMB     150      SOPE     C312     CTL2    -0.180000       12.0110           0
     17406 MEMB     150      SOPE     H12X     HAL2     0.900000E-01   1.00800           0
     17407 MEMB     150      SOPE     H12Y     HAL2     0.900000E-01   1.00800           0
     17408 MEMB     150      SOPE     C313     CTL2    -0.180000       12.0110           0
     17409 MEMB     150      SOPE     H13X     HAL2     0.900000E-01   1.00800           0
     17410 MEMB     150      SOPE     H13Y     HAL2     0.900000E-01   1.00800           0
     17411 MEMB     150      SOPE     C314     CTL2    -0.180000       12.0110           0
     17412 MEMB     150      SOPE     H14X     HAL2     0.900000E-01   1.00800           0
     17413 MEMB     150      SOPE     H14Y     HAL2     0.900000E-01   1.00800           0
     17414 MEMB     150      SOPE     C315     CTL2    -0.180000       12.0110           0
     17415 MEMB     150      SOPE     H15X     HAL2     0.900000E-01   1.00800           0
     17416 MEMB     150      SOPE     H15Y     HAL2     0.900000E-01   1.00800           0
     17417 MEMB     150      SOPE     C316     CTL2    -0.180000       12.0110           0
     17418 MEMB     150      SOPE     H16X     HAL2     0.900000E-01   1.00800           0
     17419 MEMB     150      SOPE     H16Y     HAL2     0.900000E-01   1.00800           0
     17420 MEMB     150      SOPE     C317     CTL2    -0.180000       12.0110           0
     17421 MEMB     150      SOPE     H17X     HAL2     0.900000E-01   1.00800           0
     17422 MEMB     150      SOPE     H17Y     HAL2     0.900000E-01   1.00800           0
     17423 MEMB     150      SOPE     C318     CTL3    -0.270000       12.0110           0
     17424 MEMB     150      SOPE     H18X     HAL3     0.900000E-01   1.00800           0
     17425 MEMB     150      SOPE     H18Y     HAL3     0.900000E-01   1.00800           0
     17426 MEMB     150      SOPE     H18Z     HAL3     0.900000E-01   1.00800           0
     17427 MEMB     151      POPC     N        NTL     -0.600000       14.0070           0
     17428 MEMB     151      POPC     C12      CTL2    -0.100000       12.0110           0
     17429 MEMB     151      POPC     H12A     HL       0.250000       1.00800           0
     17430 MEMB     151      POPC     H12B     HL       0.250000       1.00800           0
     17431 MEMB     151      POPC     C13      CTL5    -0.350000       12.0110           0
     17432 MEMB     151      POPC     H13A     HL       0.250000       1.00800           0
     17433 MEMB     151      POPC     H13B     HL       0.250000       1.00800           0
     17434 MEMB     151      POPC     H13C     HL       0.250000       1.00800           0
     17435 MEMB     151      POPC     C14      CTL5    -0.350000       12.0110           0
     17436 MEMB     151      POPC     H14A     HL       0.250000       1.00800           0
     17437 MEMB     151      POPC     H14B     HL       0.250000       1.00800           0
     17438 MEMB     151      POPC     H14C     HL       0.250000       1.00800           0
     17439 MEMB     151      POPC     C15      CTL5    -0.350000       12.0110           0
     17440 MEMB     151      POPC     H15A     HL       0.250000       1.00800           0
     17441 MEMB     151      POPC     H15B     HL       0.250000       1.00800           0
     17442 MEMB     151      POPC     H15C     HL       0.250000       1.00800           0
     17443 MEMB     151      POPC     C11      CTL2    -0.800000E-01   12.0110           0
     17444 MEMB     151      POPC     H11A     HAL2     0.900000E-01   1.00800           0
     17445 MEMB     151      POPC     H11B     HAL2     0.900000E-01   1.00800           0
     17446 MEMB     151      POPC     P        PL        1.50000       30.9740           0
     17447 MEMB     151      POPC     O13      O2L     -0.780000       15.9994           0
     17448 MEMB     151      POPC     O14      O2L     -0.780000       15.9994           0
     17449 MEMB     151      POPC     O12      OSLP    -0.570000       15.9994           0
     17450 MEMB     151      POPC     O11      OSLP    -0.570000       15.9994           0
     17451 MEMB     151      POPC     C1       CTL2    -0.800000E-01   12.0110           0
     17452 MEMB     151      POPC     HA       HAL2     0.900000E-01   1.00800           0
     17453 MEMB     151      POPC     HB       HAL2     0.900000E-01   1.00800           0
     17454 MEMB     151      POPC     C2       CTL1     0.170000       12.0110           0
     17455 MEMB     151      POPC     HS       HAL1     0.900000E-01   1.00800           0
     17456 MEMB     151      POPC     O21      OSL     -0.490000       15.9994           0
     17457 MEMB     151      POPC     C21      CL       0.900000       12.0110           0
     17458 MEMB     151      POPC     O22      OBL     -0.630000       15.9994           0
     17459 MEMB     151      POPC     C22      CTL2    -0.220000       12.0110           0
     17460 MEMB     151      POPC     H2R      HAL2     0.900000E-01   1.00800           0
     17461 MEMB     151      POPC     H2S      HAL2     0.900000E-01   1.00800           0
     17462 MEMB     151      POPC     C3       CTL2     0.800000E-01   12.0110           0
     17463 MEMB     151      POPC     HX       HAL2     0.900000E-01   1.00800           0
     17464 MEMB     151      POPC     HY       HAL2     0.900000E-01   1.00800           0
     17465 MEMB     151      POPC     O31      OSL     -0.490000       15.9994           0
     17466 MEMB     151      POPC     C31      CL       0.900000       12.0110           0
     17467 MEMB     151      POPC     O32      OBL     -0.630000       15.9994           0
     17468 MEMB     151      POPC     C32      CTL2    -0.220000       12.0110           0
     17469 MEMB     151      POPC     H2X      HAL2     0.900000E-01   1.00800           0
     17470 MEMB     151      POPC     H2Y      HAL2     0.900000E-01   1.00800           0
     17471 MEMB     151      POPC     C23      CTL2    -0.180000       12.0110           0
     17472 MEMB     151      POPC     H3R      HAL2     0.900000E-01   1.00800           0
     17473 MEMB     151      POPC     H3S      HAL2     0.900000E-01   1.00800           0
     17474 MEMB     151      POPC     C24      CTL2    -0.180000       12.0110           0
     17475 MEMB     151      POPC     H4R      HAL2     0.900000E-01   1.00800           0
     17476 MEMB     151      POPC     H4S      HAL2     0.900000E-01   1.00800           0
     17477 MEMB     151      POPC     C25      CTL2    -0.180000       12.0110           0
     17478 MEMB     151      POPC     H5R      HAL2     0.900000E-01   1.00800           0
     17479 MEMB     151      POPC     H5S      HAL2     0.900000E-01   1.00800           0
     17480 MEMB     151      POPC     C26      CTL2    -0.180000       12.0110           0
     17481 MEMB     151      POPC     H6R      HAL2     0.900000E-01   1.00800           0
     17482 MEMB     151      POPC     H6S      HAL2     0.900000E-01   1.00800           0
     17483 MEMB     151      POPC     C27      CTL2    -0.180000       12.0110           0
     17484 MEMB     151      POPC     H7R      HAL2     0.900000E-01   1.00800           0
     17485 MEMB     151      POPC     H7S      HAL2     0.900000E-01   1.00800           0
     17486 MEMB     151      POPC     C28      CTL2    -0.180000       12.0110           0
     17487 MEMB     151      POPC     H8R      HAL2     0.900000E-01   1.00800           0
     17488 MEMB     151      POPC     H8S      HAL2     0.900000E-01   1.00800           0
     17489 MEMB     151      POPC     C29      CEL1    -0.150000       12.0110           0
     17490 MEMB     151      POPC     H91      HEL1     0.150000       1.00800           0
     17491 MEMB     151      POPC     C210     CEL1    -0.150000       12.0110           0
     17492 MEMB     151      POPC     H101     HEL1     0.150000       1.00800           0
     17493 MEMB     151      POPC     C211     CTL2    -0.180000       12.0110           0
     17494 MEMB     151      POPC     H11R     HAL2     0.900000E-01   1.00800           0
     17495 MEMB     151      POPC     H11S     HAL2     0.900000E-01   1.00800           0
     17496 MEMB     151      POPC     C212     CTL2    -0.180000       12.0110           0
     17497 MEMB     151      POPC     H12R     HAL2     0.900000E-01   1.00800           0
     17498 MEMB     151      POPC     H12S     HAL2     0.900000E-01   1.00800           0
     17499 MEMB     151      POPC     C213     CTL2    -0.180000       12.0110           0
     17500 MEMB     151      POPC     H13R     HAL2     0.900000E-01   1.00800           0
     17501 MEMB     151      POPC     H13S     HAL2     0.900000E-01   1.00800           0
     17502 MEMB     151      POPC     C214     CTL2    -0.180000       12.0110           0
     17503 MEMB     151      POPC     H14R     HAL2     0.900000E-01   1.00800           0
     17504 MEMB     151      POPC     H14S     HAL2     0.900000E-01   1.00800           0
     17505 MEMB     151      POPC     C215     CTL2    -0.180000       12.0110           0
     17506 MEMB     151      POPC     H15R     HAL2     0.900000E-01   1.00800           0
     17507 MEMB     151      POPC     H15S     HAL2     0.900000E-01   1.00800           0
     17508 MEMB     151      POPC     C216     CTL2    -0.180000       12.0110           0
     17509 MEMB     151      POPC     H16R     HAL2     0.900000E-01   1.00800           0
     17510 MEMB     151      POPC     H16S     HAL2     0.900000E-01   1.00800           0
     17511 MEMB     151      POPC     C217     CTL2    -0.180000       12.0110           0
     17512 MEMB     151      POPC     H17R     HAL2     0.900000E-01   1.00800           0
     17513 MEMB     151      POPC     H17S     HAL2     0.900000E-01   1.00800           0
     17514 MEMB     151      POPC     C218     CTL3    -0.270000       12.0110           0
     17515 MEMB     151      POPC     H18R     HAL3     0.900000E-01   1.00800           0
     17516 MEMB     151      POPC     H18S     HAL3     0.900000E-01   1.00800           0
     17517 MEMB     151      POPC     H18T     HAL3     0.900000E-01   1.00800           0
     17518 MEMB     151      POPC     C33      CTL2    -0.180000       12.0110           0
     17519 MEMB     151      POPC     H3X      HAL2     0.900000E-01   1.00800           0
     17520 MEMB     151      POPC     H3Y      HAL2     0.900000E-01   1.00800           0
     17521 MEMB     151      POPC     C34      CTL2    -0.180000       12.0110           0
     17522 MEMB     151      POPC     H4X      HAL2     0.900000E-01   1.00800           0
     17523 MEMB     151      POPC     H4Y      HAL2     0.900000E-01   1.00800           0
     17524 MEMB     151      POPC     C35      CTL2    -0.180000       12.0110           0
     17525 MEMB     151      POPC     H5X      HAL2     0.900000E-01   1.00800           0
     17526 MEMB     151      POPC     H5Y      HAL2     0.900000E-01   1.00800           0
     17527 MEMB     151      POPC     C36      CTL2    -0.180000       12.0110           0
     17528 MEMB     151      POPC     H6X      HAL2     0.900000E-01   1.00800           0
     17529 MEMB     151      POPC     H6Y      HAL2     0.900000E-01   1.00800           0
     17530 MEMB     151      POPC     C37      CTL2    -0.180000       12.0110           0
     17531 MEMB     151      POPC     H7X      HAL2     0.900000E-01   1.00800           0
     17532 MEMB     151      POPC     H7Y      HAL2     0.900000E-01   1.00800           0
     17533 MEMB     151      POPC     C38      CTL2    -0.180000       12.0110           0
     17534 MEMB     151      POPC     H8X      HAL2     0.900000E-01   1.00800           0
     17535 MEMB     151      POPC     H8Y      HAL2     0.900000E-01   1.00800           0
     17536 MEMB     151      POPC     C39      CTL2    -0.180000       12.0110           0
     17537 MEMB     151      POPC     H9X      HAL2     0.900000E-01   1.00800           0
     17538 MEMB     151      POPC     H9Y      HAL2     0.900000E-01   1.00800           0
     17539 MEMB     151      POPC     C310     CTL2    -0.180000       12.0110           0
     17540 MEMB     151      POPC     H10X     HAL2     0.900000E-01   1.00800           0
     17541 MEMB     151      POPC     H10Y     HAL2     0.900000E-01   1.00800           0
     17542 MEMB     151      POPC     C311     CTL2    -0.180000       12.0110           0
     17543 MEMB     151      POPC     H11X     HAL2     0.900000E-01   1.00800           0
     17544 MEMB     151      POPC     H11Y     HAL2     0.900000E-01   1.00800           0
     17545 MEMB     151      POPC     C312     CTL2    -0.180000       12.0110           0
     17546 MEMB     151      POPC     H12X     HAL2     0.900000E-01   1.00800           0
     17547 MEMB     151      POPC     H12Y     HAL2     0.900000E-01   1.00800           0
     17548 MEMB     151      POPC     C313     CTL2    -0.180000       12.0110           0
     17549 MEMB     151      POPC     H13X     HAL2     0.900000E-01   1.00800           0
     17550 MEMB     151      POPC     H13Y     HAL2     0.900000E-01   1.00800           0
     17551 MEMB     151      POPC     C314     CTL2    -0.180000       12.0110           0
     17552 MEMB     151      POPC     H14X     HAL2     0.900000E-01   1.00800           0
     17553 MEMB     151      POPC     H14Y     HAL2     0.900000E-01   1.00800           0
     17554 MEMB     151      POPC     C315     CTL2    -0.180000       12.0110           0
     17555 MEMB     151      POPC     H15X     HAL2     0.900000E-01   1.00800           0
     17556 MEMB     151      POPC     H15Y     HAL2     0.900000E-01   1.00800           0
     17557 MEMB     151      POPC     C316     CTL3    -0.270000       12.0110           0
     17558 MEMB     151      POPC     H16X     HAL3     0.900000E-01   1.00800           0
     17559 MEMB     151      POPC     H16Y     HAL3     0.900000E-01   1.00800           0
     17560 MEMB     151      POPC     H16Z     HAL3     0.900000E-01   1.00800           0
     17561 MEMB     152      SAPE     N        NH3L    -0.300000       14.0070           0
     17562 MEMB     152      SAPE     HN1      HCL      0.330000       1.00800           0
     17563 MEMB     152      SAPE     HN2      HCL      0.330000       1.00800           0
     17564 MEMB     152      SAPE     HN3      HCL      0.330000       1.00800           0
     17565 MEMB     152      SAPE     C12      CTL2     0.130000       12.0110           0
     17566 MEMB     152      SAPE     H12A     HAL2     0.900000E-01   1.00800           0
     17567 MEMB     152      SAPE     H12B     HAL2     0.900000E-01   1.00800           0
     17568 MEMB     152      SAPE     C11      CTL2    -0.800000E-01   12.0110           0
     17569 MEMB     152      SAPE     H11A     HAL2     0.900000E-01   1.00800           0
     17570 MEMB     152      SAPE     H11B     HAL2     0.900000E-01   1.00800           0
     17571 MEMB     152      SAPE     P        PL        1.50000       30.9740           0
     17572 MEMB     152      SAPE     O13      O2L     -0.780000       15.9994           0
     17573 MEMB     152      SAPE     O14      O2L     -0.780000       15.9994           0
     17574 MEMB     152      SAPE     O12      OSLP    -0.570000       15.9994           0
     17575 MEMB     152      SAPE     O11      OSLP    -0.570000       15.9994           0
     17576 MEMB     152      SAPE     C1       CTL2    -0.800000E-01   12.0110           0
     17577 MEMB     152      SAPE     HA       HAL2     0.900000E-01   1.00800           0
     17578 MEMB     152      SAPE     HB       HAL2     0.900000E-01   1.00800           0
     17579 MEMB     152      SAPE     C2       CTL1     0.170000       12.0110           0
     17580 MEMB     152      SAPE     HS       HAL1     0.900000E-01   1.00800           0
     17581 MEMB     152      SAPE     O21      OSL     -0.490000       15.9994           0
     17582 MEMB     152      SAPE     C21      CL       0.900000       12.0110           0
     17583 MEMB     152      SAPE     O22      OBL     -0.630000       15.9994           0
     17584 MEMB     152      SAPE     C22      CTL2    -0.220000       12.0110           0
     17585 MEMB     152      SAPE     H2R      HAL2     0.900000E-01   1.00800           0
     17586 MEMB     152      SAPE     H2S      HAL2     0.900000E-01   1.00800           0
     17587 MEMB     152      SAPE     C3       CTL2     0.800000E-01   12.0110           0
     17588 MEMB     152      SAPE     HX       HAL2     0.900000E-01   1.00800           0
     17589 MEMB     152      SAPE     HY       HAL2     0.900000E-01   1.00800           0
     17590 MEMB     152      SAPE     O31      OSL     -0.490000       15.9994           0
     17591 MEMB     152      SAPE     C31      CL       0.900000       12.0110           0
     17592 MEMB     152      SAPE     O32      OBL     -0.630000       15.9994           0
     17593 MEMB     152      SAPE     C32      CTL2    -0.220000       12.0110           0
     17594 MEMB     152      SAPE     H2X      HAL2     0.900000E-01   1.00800           0
     17595 MEMB     152      SAPE     H2Y      HAL2     0.900000E-01   1.00800           0
     17596 MEMB     152      SAPE     C23      CTL2    -0.180000       12.0110           0
     17597 MEMB     152      SAPE     H3R      HAL2     0.900000E-01   1.00800           0
     17598 MEMB     152      SAPE     H3S      HAL2     0.900000E-01   1.00800           0
     17599 MEMB     152      SAPE     C24      CTL2    -0.180000       12.0110           0
     17600 MEMB     152      SAPE     H4R      HAL2     0.900000E-01   1.00800           0
     17601 MEMB     152      SAPE     H4S      HAL2     0.900000E-01   1.00800           0
     17602 MEMB     152      SAPE     C25      CEL1    -0.150000       12.0110           0
     17603 MEMB     152      SAPE     H5R      HEL1     0.150000       1.00800           0
     17604 MEMB     152      SAPE     C26      CEL1    -0.150000       12.0110           0
     17605 MEMB     152      SAPE     H6R      HEL1     0.150000       1.00800           0
     17606 MEMB     152      SAPE     C27      CTL2    -0.180000       12.0110           0
     17607 MEMB     152      SAPE     H7R      HAL2     0.900000E-01   1.00800           0
     17608 MEMB     152      SAPE     H7S      HAL2     0.900000E-01   1.00800           0
     17609 MEMB     152      SAPE     C28      CEL1    -0.150000       12.0110           0
     17610 MEMB     152      SAPE     H8R      HEL1     0.150000       1.00800           0
     17611 MEMB     152      SAPE     C29      CEL1    -0.150000       12.0110           0
     17612 MEMB     152      SAPE     H9R      HEL1     0.150000       1.00800           0
     17613 MEMB     152      SAPE     C210     CTL2    -0.180000       12.0110           0
     17614 MEMB     152      SAPE     H10R     HAL2     0.900000E-01   1.00800           0
     17615 MEMB     152      SAPE     H10S     HAL2     0.900000E-01   1.00800           0
     17616 MEMB     152      SAPE     C211     CEL1    -0.150000       12.0110           0
     17617 MEMB     152      SAPE     H11R     HEL1     0.150000       1.00800           0
     17618 MEMB     152      SAPE     C212     CEL1    -0.150000       12.0110           0
     17619 MEMB     152      SAPE     H12R     HEL1     0.150000       1.00800           0
     17620 MEMB     152      SAPE     C213     CTL2    -0.180000       12.0110           0
     17621 MEMB     152      SAPE     H13R     HAL2     0.900000E-01   1.00800           0
     17622 MEMB     152      SAPE     H13S     HAL2     0.900000E-01   1.00800           0
     17623 MEMB     152      SAPE     C214     CEL1    -0.150000       12.0110           0
     17624 MEMB     152      SAPE     H14R     HEL1     0.150000       1.00800           0
     17625 MEMB     152      SAPE     C215     CEL1    -0.150000       12.0110           0
     17626 MEMB     152      SAPE     H15R     HEL1     0.150000       1.00800           0
     17627 MEMB     152      SAPE     C216     CTL2    -0.180000       12.0110           0
     17628 MEMB     152      SAPE     H16R     HAL2     0.900000E-01   1.00800           0
     17629 MEMB     152      SAPE     H16S     HAL2     0.900000E-01   1.00800           0
     17630 MEMB     152      SAPE     C217     CTL2    -0.180000       12.0110           0
     17631 MEMB     152      SAPE     H17R     HAL2     0.900000E-01   1.00800           0
     17632 MEMB     152      SAPE     H17S     HAL2     0.900000E-01   1.00800           0
     17633 MEMB     152      SAPE     C218     CTL2    -0.180000       12.0110           0
     17634 MEMB     152      SAPE     H18R     HAL2     0.900000E-01   1.00800           0
     17635 MEMB     152      SAPE     H18S     HAL2     0.900000E-01   1.00800           0
     17636 MEMB     152      SAPE     C219     CTL2    -0.180000       12.0110           0
     17637 MEMB     152      SAPE     H19R     HAL2     0.900000E-01   1.00800           0
     17638 MEMB     152      SAPE     H19S     HAL2     0.900000E-01   1.00800           0
     17639 MEMB     152      SAPE     C220     CTL3    -0.270000       12.0110           0
     17640 MEMB     152      SAPE     H20R     HAL3     0.900000E-01   1.00800           0
     17641 MEMB     152      SAPE     H20S     HAL3     0.900000E-01   1.00800           0
     17642 MEMB     152      SAPE     H20T     HAL3     0.900000E-01   1.00800           0
     17643 MEMB     152      SAPE     C33      CTL2    -0.180000       12.0110           0
     17644 MEMB     152      SAPE     H3X      HAL2     0.900000E-01   1.00800           0
     17645 MEMB     152      SAPE     H3Y      HAL2     0.900000E-01   1.00800           0
     17646 MEMB     152      SAPE     C34      CTL2    -0.180000       12.0110           0
     17647 MEMB     152      SAPE     H4X      HAL2     0.900000E-01   1.00800           0
     17648 MEMB     152      SAPE     H4Y      HAL2     0.900000E-01   1.00800           0
     17649 MEMB     152      SAPE     C35      CTL2    -0.180000       12.0110           0
     17650 MEMB     152      SAPE     H5X      HAL2     0.900000E-01   1.00800           0
     17651 MEMB     152      SAPE     H5Y      HAL2     0.900000E-01   1.00800           0
     17652 MEMB     152      SAPE     C36      CTL2    -0.180000       12.0110           0
     17653 MEMB     152      SAPE     H6X      HAL2     0.900000E-01   1.00800           0
     17654 MEMB     152      SAPE     H6Y      HAL2     0.900000E-01   1.00800           0
     17655 MEMB     152      SAPE     C37      CTL2    -0.180000       12.0110           0
     17656 MEMB     152      SAPE     H7X      HAL2     0.900000E-01   1.00800           0
     17657 MEMB     152      SAPE     H7Y      HAL2     0.900000E-01   1.00800           0
     17658 MEMB     152      SAPE     C38      CTL2    -0.180000       12.0110           0
     17659 MEMB     152      SAPE     H8X      HAL2     0.900000E-01   1.00800           0
     17660 MEMB     152      SAPE     H8Y      HAL2     0.900000E-01   1.00800           0
     17661 MEMB     152      SAPE     C39      CTL2    -0.180000       12.0110           0
     17662 MEMB     152      SAPE     H9X      HAL2     0.900000E-01   1.00800           0
     17663 MEMB     152      SAPE     H9Y      HAL2     0.900000E-01   1.00800           0
     17664 MEMB     152      SAPE     C310     CTL2    -0.180000       12.0110           0
     17665 MEMB     152      SAPE     H10X     HAL2     0.900000E-01   1.00800           0
     17666 MEMB     152      SAPE     H10Y     HAL2     0.900000E-01   1.00800           0
     17667 MEMB     152      SAPE     C311     CTL2    -0.180000       12.0110           0
     17668 MEMB     152      SAPE     H11X     HAL2     0.900000E-01   1.00800           0
     17669 MEMB     152      SAPE     H11Y     HAL2     0.900000E-01   1.00800           0
     17670 MEMB     152      SAPE     C312     CTL2    -0.180000       12.0110           0
     17671 MEMB     152      SAPE     H12X     HAL2     0.900000E-01   1.00800           0
     17672 MEMB     152      SAPE     H12Y     HAL2     0.900000E-01   1.00800           0
     17673 MEMB     152      SAPE     C313     CTL2    -0.180000       12.0110           0
     17674 MEMB     152      SAPE     H13X     HAL2     0.900000E-01   1.00800           0
     17675 MEMB     152      SAPE     H13Y     HAL2     0.900000E-01   1.00800           0
     17676 MEMB     152      SAPE     C314     CTL2    -0.180000       12.0110           0
     17677 MEMB     152      SAPE     H14X     HAL2     0.900000E-01   1.00800           0
     17678 MEMB     152      SAPE     H14Y     HAL2     0.900000E-01   1.00800           0
     17679 MEMB     152      SAPE     C315     CTL2    -0.180000       12.0110           0
     17680 MEMB     152      SAPE     H15X     HAL2     0.900000E-01   1.00800           0
     17681 MEMB     152      SAPE     H15Y     HAL2     0.900000E-01   1.00800           0
     17682 MEMB     152      SAPE     C316     CTL2    -0.180000       12.0110           0
     17683 MEMB     152      SAPE     H16X     HAL2     0.900000E-01   1.00800           0
     17684 MEMB     152      SAPE     H16Y     HAL2     0.900000E-01   1.00800           0
     17685 MEMB     152      SAPE     C317     CTL2    -0.180000       12.0110           0
     17686 MEMB     152      SAPE     H17X     HAL2     0.900000E-01   1.00800           0
     17687 MEMB     152      SAPE     H17Y     HAL2     0.900000E-01   1.00800           0
     17688 MEMB     152      SAPE     C318     CTL3    -0.270000       12.0110           0
     17689 MEMB     152      SAPE     H18X     HAL3     0.900000E-01   1.00800           0
     17690 MEMB     152      SAPE     H18Y     HAL3     0.900000E-01   1.00800           0
     17691 MEMB     152      SAPE     H18Z     HAL3     0.900000E-01   1.00800           0
     17692 MEMB     153      SAPC     N        NTL     -0.600000       14.0070           0
     17693 MEMB     153      SAPC     C12      CTL2    -0.100000       12.0110           0
     17694 MEMB     153      SAPC     H12A     HL       0.250000       1.00800           0
     17695 MEMB     153      SAPC     H12B     HL       0.250000       1.00800           0
     17696 MEMB     153      SAPC     C13      CTL5    -0.350000       12.0110           0
     17697 MEMB     153      SAPC     H13A     HL       0.250000       1.00800           0
     17698 MEMB     153      SAPC     H13B     HL       0.250000       1.00800           0
     17699 MEMB     153      SAPC     H13C     HL       0.250000       1.00800           0
     17700 MEMB     153      SAPC     C14      CTL5    -0.350000       12.0110           0
     17701 MEMB     153      SAPC     H14A     HL       0.250000       1.00800           0
     17702 MEMB     153      SAPC     H14B     HL       0.250000       1.00800           0
     17703 MEMB     153      SAPC     H14C     HL       0.250000       1.00800           0
     17704 MEMB     153      SAPC     C15      CTL5    -0.350000       12.0110           0
     17705 MEMB     153      SAPC     H15A     HL       0.250000       1.00800           0
     17706 MEMB     153      SAPC     H15B     HL       0.250000       1.00800           0
     17707 MEMB     153      SAPC     H15C     HL       0.250000       1.00800           0
     17708 MEMB     153      SAPC     C11      CTL2    -0.800000E-01   12.0110           0
     17709 MEMB     153      SAPC     H11A     HAL2     0.900000E-01   1.00800           0
     17710 MEMB     153      SAPC     H11B     HAL2     0.900000E-01   1.00800           0
     17711 MEMB     153      SAPC     P        PL        1.50000       30.9740           0
     17712 MEMB     153      SAPC     O13      O2L     -0.780000       15.9994           0
     17713 MEMB     153      SAPC     O14      O2L     -0.780000       15.9994           0
     17714 MEMB     153      SAPC     O12      OSLP    -0.570000       15.9994           0
     17715 MEMB     153      SAPC     O11      OSLP    -0.570000       15.9994           0
     17716 MEMB     153      SAPC     C1       CTL2    -0.800000E-01   12.0110           0
     17717 MEMB     153      SAPC     HA       HAL2     0.900000E-01   1.00800           0
     17718 MEMB     153      SAPC     HB       HAL2     0.900000E-01   1.00800           0
     17719 MEMB     153      SAPC     C2       CTL1     0.170000       12.0110           0
     17720 MEMB     153      SAPC     HS       HAL1     0.900000E-01   1.00800           0
     17721 MEMB     153      SAPC     O21      OSL     -0.490000       15.9994           0
     17722 MEMB     153      SAPC     C21      CL       0.900000       12.0110           0
     17723 MEMB     153      SAPC     O22      OBL     -0.630000       15.9994           0
     17724 MEMB     153      SAPC     C22      CTL2    -0.220000       12.0110           0
     17725 MEMB     153      SAPC     H2R      HAL2     0.900000E-01   1.00800           0
     17726 MEMB     153      SAPC     H2S      HAL2     0.900000E-01   1.00800           0
     17727 MEMB     153      SAPC     C3       CTL2     0.800000E-01   12.0110           0
     17728 MEMB     153      SAPC     HX       HAL2     0.900000E-01   1.00800           0
     17729 MEMB     153      SAPC     HY       HAL2     0.900000E-01   1.00800           0
     17730 MEMB     153      SAPC     O31      OSL     -0.490000       15.9994           0
     17731 MEMB     153      SAPC     C31      CL       0.900000       12.0110           0
     17732 MEMB     153      SAPC     O32      OBL     -0.630000       15.9994           0
     17733 MEMB     153      SAPC     C32      CTL2    -0.220000       12.0110           0
     17734 MEMB     153      SAPC     H2X      HAL2     0.900000E-01   1.00800           0
     17735 MEMB     153      SAPC     H2Y      HAL2     0.900000E-01   1.00800           0
     17736 MEMB     153      SAPC     C23      CTL2    -0.180000       12.0110           0
     17737 MEMB     153      SAPC     H3R      HAL2     0.900000E-01   1.00800           0
     17738 MEMB     153      SAPC     H3S      HAL2     0.900000E-01   1.00800           0
     17739 MEMB     153      SAPC     C24      CTL2    -0.180000       12.0110           0
     17740 MEMB     153      SAPC     H4R      HAL2     0.900000E-01   1.00800           0
     17741 MEMB     153      SAPC     H4S      HAL2     0.900000E-01   1.00800           0
     17742 MEMB     153      SAPC     C25      CEL1    -0.150000       12.0110           0
     17743 MEMB     153      SAPC     H5R      HEL1     0.150000       1.00800           0
     17744 MEMB     153      SAPC     C26      CEL1    -0.150000       12.0110           0
     17745 MEMB     153      SAPC     H6R      HEL1     0.150000       1.00800           0
     17746 MEMB     153      SAPC     C27      CTL2    -0.180000       12.0110           0
     17747 MEMB     153      SAPC     H7R      HAL2     0.900000E-01   1.00800           0
     17748 MEMB     153      SAPC     H7S      HAL2     0.900000E-01   1.00800           0
     17749 MEMB     153      SAPC     C28      CEL1    -0.150000       12.0110           0
     17750 MEMB     153      SAPC     H8R      HEL1     0.150000       1.00800           0
     17751 MEMB     153      SAPC     C29      CEL1    -0.150000       12.0110           0
     17752 MEMB     153      SAPC     H9R      HEL1     0.150000       1.00800           0
     17753 MEMB     153      SAPC     C210     CTL2    -0.180000       12.0110           0
     17754 MEMB     153      SAPC     H10R     HAL2     0.900000E-01   1.00800           0
     17755 MEMB     153      SAPC     H10S     HAL2     0.900000E-01   1.00800           0
     17756 MEMB     153      SAPC     C211     CEL1    -0.150000       12.0110           0
     17757 MEMB     153      SAPC     H11R     HEL1     0.150000       1.00800           0
     17758 MEMB     153      SAPC     C212     CEL1    -0.150000       12.0110           0
     17759 MEMB     153      SAPC     H12R     HEL1     0.150000       1.00800           0
     17760 MEMB     153      SAPC     C213     CTL2    -0.180000       12.0110           0
     17761 MEMB     153      SAPC     H13R     HAL2     0.900000E-01   1.00800           0
     17762 MEMB     153      SAPC     H13S     HAL2     0.900000E-01   1.00800           0
     17763 MEMB     153      SAPC     C214     CEL1    -0.150000       12.0110           0
     17764 MEMB     153      SAPC     H14R     HEL1     0.150000       1.00800           0
     17765 MEMB     153      SAPC     C215     CEL1    -0.150000       12.0110           0
     17766 MEMB     153      SAPC     H15R     HEL1     0.150000       1.00800           0
     17767 MEMB     153      SAPC     C216     CTL2    -0.180000       12.0110           0
     17768 MEMB     153      SAPC     H16R     HAL2     0.900000E-01   1.00800           0
     17769 MEMB     153      SAPC     H16S     HAL2     0.900000E-01   1.00800           0
     17770 MEMB     153      SAPC     C217     CTL2    -0.180000       12.0110           0
     17771 MEMB     153      SAPC     H17R     HAL2     0.900000E-01   1.00800           0
     17772 MEMB     153      SAPC     H17S     HAL2     0.900000E-01   1.00800           0
     17773 MEMB     153      SAPC     C218     CTL2    -0.270000       12.0110           0
     17774 MEMB     153      SAPC     H18R     HAL2     0.900000E-01   1.00800           0
     17775 MEMB     153      SAPC     H18S     HAL2     0.900000E-01   1.00800           0
     17776 MEMB     153      SAPC     C219     CTL2    -0.180000       12.0110           0
     17777 MEMB     153      SAPC     H19R     HAL2     0.900000E-01   1.00800           0
     17778 MEMB     153      SAPC     H19S     HAL2     0.900000E-01   1.00800           0
     17779 MEMB     153      SAPC     C220     CTL3    -0.180000       12.0110           0
     17780 MEMB     153      SAPC     H20R     HAL3     0.900000E-01   1.00800           0
     17781 MEMB     153      SAPC     H20S     HAL3     0.900000E-01   1.00800           0
     17782 MEMB     153      SAPC     H20T     HAL3     0.900000E-01   1.00800           0
     17783 MEMB     153      SAPC     C33      CTL2    -0.180000       12.0110           0
     17784 MEMB     153      SAPC     H3X      HAL2     0.900000E-01   1.00800           0
     17785 MEMB     153      SAPC     H3Y      HAL2     0.900000E-01   1.00800           0
     17786 MEMB     153      SAPC     C34      CTL2    -0.180000       12.0110           0
     17787 MEMB     153      SAPC     H4X      HAL2     0.900000E-01   1.00800           0
     17788 MEMB     153      SAPC     H4Y      HAL2     0.900000E-01   1.00800           0
     17789 MEMB     153      SAPC     C35      CTL2    -0.180000       12.0110           0
     17790 MEMB     153      SAPC     H5X      HAL2     0.900000E-01   1.00800           0
     17791 MEMB     153      SAPC     H5Y      HAL2     0.900000E-01   1.00800           0
     17792 MEMB     153      SAPC     C36      CTL2    -0.180000       12.0110           0
     17793 MEMB     153      SAPC     H6X      HAL2     0.900000E-01   1.00800           0
     17794 MEMB     153      SAPC     H6Y      HAL2     0.900000E-01   1.00800           0
     17795 MEMB     153      SAPC     C37      CTL2    -0.180000       12.0110           0
     17796 MEMB     153      SAPC     H7X      HAL2     0.900000E-01   1.00800           0
     17797 MEMB     153      SAPC     H7Y      HAL2     0.900000E-01   1.00800           0
     17798 MEMB     153      SAPC     C38      CTL2    -0.180000       12.0110           0
     17799 MEMB     153      SAPC     H8X      HAL2     0.900000E-01   1.00800           0
     17800 MEMB     153      SAPC     H8Y      HAL2     0.900000E-01   1.00800           0
     17801 MEMB     153      SAPC     C39      CTL2    -0.180000       12.0110           0
     17802 MEMB     153      SAPC     H9X      HAL2     0.900000E-01   1.00800           0
     17803 MEMB     153      SAPC     H9Y      HAL2     0.900000E-01   1.00800           0
     17804 MEMB     153      SAPC     C310     CTL2    -0.180000       12.0110           0
     17805 MEMB     153      SAPC     H10X     HAL2     0.900000E-01   1.00800           0
     17806 MEMB     153      SAPC     H10Y     HAL2     0.900000E-01   1.00800           0
     17807 MEMB     153      SAPC     C311     CTL2    -0.180000       12.0110           0
     17808 MEMB     153      SAPC     H11X     HAL2     0.900000E-01   1.00800           0
     17809 MEMB     153      SAPC     H11Y     HAL2     0.900000E-01   1.00800           0
     17810 MEMB     153      SAPC     C312     CTL2    -0.180000       12.0110           0
     17811 MEMB     153      SAPC     H12X     HAL2     0.900000E-01   1.00800           0
     17812 MEMB     153      SAPC     H12Y     HAL2     0.900000E-01   1.00800           0
     17813 MEMB     153      SAPC     C313     CTL2    -0.180000       12.0110           0
     17814 MEMB     153      SAPC     H13X     HAL2     0.900000E-01   1.00800           0
     17815 MEMB     153      SAPC     H13Y     HAL2     0.900000E-01   1.00800           0
     17816 MEMB     153      SAPC     C314     CTL2    -0.180000       12.0110           0
     17817 MEMB     153      SAPC     H14X     HAL2     0.900000E-01   1.00800           0
     17818 MEMB     153      SAPC     H14Y     HAL2     0.900000E-01   1.00800           0
     17819 MEMB     153      SAPC     C315     CTL2    -0.180000       12.0110           0
     17820 MEMB     153      SAPC     H15X     HAL2     0.900000E-01   1.00800           0
     17821 MEMB     153      SAPC     H15Y     HAL2     0.900000E-01   1.00800           0
     17822 MEMB     153      SAPC     C316     CTL2    -0.180000       12.0110           0
     17823 MEMB     153      SAPC     H16X     HAL2     0.900000E-01   1.00800           0
     17824 MEMB     153      SAPC     H16Y     HAL2     0.900000E-01   1.00800           0
     17825 MEMB     153      SAPC     C317     CTL2    -0.180000       12.0110           0
     17826 MEMB     153      SAPC     H17X     HAL2     0.900000E-01   1.00800           0
     17827 MEMB     153      SAPC     H17Y     HAL2     0.900000E-01   1.00800           0
     17828 MEMB     153      SAPC     C318     CTL3    -0.270000       12.0110           0
     17829 MEMB     153      SAPC     H18X     HAL3     0.900000E-01   1.00800           0
     17830 MEMB     153      SAPC     H18Y     HAL3     0.900000E-01   1.00800           0
     17831 MEMB     153      SAPC     H18Z     HAL3     0.900000E-01   1.00800           0
     17832 MEMB     154      SAPS     N        NH3L    -0.300000       14.0070           0
     17833 MEMB     154      SAPS     HN1      HCL      0.330000       1.00800           0
     17834 MEMB     154      SAPS     HN2      HCL      0.330000       1.00800           0
     17835 MEMB     154      SAPS     HN3      HCL      0.330000       1.00800           0
     17836 MEMB     154      SAPS     C12      CTL1     0.210000       12.0110           0
     17837 MEMB     154      SAPS     H12A     HBL      0.100000       1.00800           0
     17838 MEMB     154      SAPS     C13      CCL      0.340000       12.0110           0
     17839 MEMB     154      SAPS     O13A     OCL     -0.670000       15.9994           0
     17840 MEMB     154      SAPS     O13B     OCL     -0.670000       15.9994           0
     17841 MEMB     154      SAPS     C11      CTL2    -0.800000E-01   12.0110           0
     17842 MEMB     154      SAPS     H11A     HAL2     0.900000E-01   1.00800           0
     17843 MEMB     154      SAPS     H11B     HAL2     0.900000E-01   1.00800           0
     17844 MEMB     154      SAPS     P        PL        1.50000       30.9740           0
     17845 MEMB     154      SAPS     O13      O2L     -0.780000       15.9994           0
     17846 MEMB     154      SAPS     O14      O2L     -0.780000       15.9994           0
     17847 MEMB     154      SAPS     O12      OSLP    -0.570000       15.9994           0
     17848 MEMB     154      SAPS     O11      OSLP    -0.570000       15.9994           0
     17849 MEMB     154      SAPS     C1       CTL2    -0.800000E-01   12.0110           0
     17850 MEMB     154      SAPS     HA       HAL2     0.900000E-01   1.00800           0
     17851 MEMB     154      SAPS     HB       HAL2     0.900000E-01   1.00800           0
     17852 MEMB     154      SAPS     C2       CTL1     0.170000       12.0110           0
     17853 MEMB     154      SAPS     HS       HAL1     0.900000E-01   1.00800           0
     17854 MEMB     154      SAPS     O21      OSL     -0.490000       15.9994           0
     17855 MEMB     154      SAPS     C21      CL       0.900000       12.0110           0
     17856 MEMB     154      SAPS     O22      OBL     -0.630000       15.9994           0
     17857 MEMB     154      SAPS     C22      CTL2    -0.220000       12.0110           0
     17858 MEMB     154      SAPS     H2R      HAL2     0.900000E-01   1.00800           0
     17859 MEMB     154      SAPS     H2S      HAL2     0.900000E-01   1.00800           0
     17860 MEMB     154      SAPS     C3       CTL2     0.800000E-01   12.0110           0
     17861 MEMB     154      SAPS     HX       HAL2     0.900000E-01   1.00800           0
     17862 MEMB     154      SAPS     HY       HAL2     0.900000E-01   1.00800           0
     17863 MEMB     154      SAPS     O31      OSL     -0.490000       15.9994           0
     17864 MEMB     154      SAPS     C31      CL       0.900000       12.0110           0
     17865 MEMB     154      SAPS     O32      OBL     -0.630000       15.9994           0
     17866 MEMB     154      SAPS     C32      CTL2    -0.220000       12.0110           0
     17867 MEMB     154      SAPS     H2X      HAL2     0.900000E-01   1.00800           0
     17868 MEMB     154      SAPS     H2Y      HAL2     0.900000E-01   1.00800           0
     17869 MEMB     154      SAPS     C23      CTL2    -0.180000       12.0110           0
     17870 MEMB     154      SAPS     H3R      HAL2     0.900000E-01   1.00800           0
     17871 MEMB     154      SAPS     H3S      HAL2     0.900000E-01   1.00800           0
     17872 MEMB     154      SAPS     C24      CTL2    -0.180000       12.0110           0
     17873 MEMB     154      SAPS     H4R      HAL2     0.900000E-01   1.00800           0
     17874 MEMB     154      SAPS     H4S      HAL2     0.900000E-01   1.00800           0
     17875 MEMB     154      SAPS     C25      CEL1    -0.150000       12.0110           0
     17876 MEMB     154      SAPS     H5R      HEL1     0.150000       1.00800           0
     17877 MEMB     154      SAPS     C26      CEL1    -0.150000       12.0110           0
     17878 MEMB     154      SAPS     H6R      HEL1     0.150000       1.00800           0
     17879 MEMB     154      SAPS     C27      CTL2    -0.180000       12.0110           0
     17880 MEMB     154      SAPS     H7R      HAL2     0.900000E-01   1.00800           0
     17881 MEMB     154      SAPS     H7S      HAL2     0.900000E-01   1.00800           0
     17882 MEMB     154      SAPS     C28      CEL1    -0.150000       12.0110           0
     17883 MEMB     154      SAPS     H8R      HEL1     0.150000       1.00800           0
     17884 MEMB     154      SAPS     C29      CEL1    -0.150000       12.0110           0
     17885 MEMB     154      SAPS     H9R      HEL1     0.150000       1.00800           0
     17886 MEMB     154      SAPS     C210     CTL2    -0.180000       12.0110           0
     17887 MEMB     154      SAPS     H10R     HAL2     0.900000E-01   1.00800           0
     17888 MEMB     154      SAPS     H10S     HAL2     0.900000E-01   1.00800           0
     17889 MEMB     154      SAPS     C211     CEL1    -0.150000       12.0110           0
     17890 MEMB     154      SAPS     H11R     HEL1     0.150000       1.00800           0
     17891 MEMB     154      SAPS     C212     CEL1    -0.150000       12.0110           0
     17892 MEMB     154      SAPS     H12R     HEL1     0.150000       1.00800           0
     17893 MEMB     154      SAPS     C213     CTL2    -0.180000       12.0110           0
     17894 MEMB     154      SAPS     H13R     HAL2     0.900000E-01   1.00800           0
     17895 MEMB     154      SAPS     H13S     HAL2     0.900000E-01   1.00800           0
     17896 MEMB     154      SAPS     C214     CEL1    -0.150000       12.0110           0
     17897 MEMB     154      SAPS     H14R     HEL1     0.150000       1.00800           0
     17898 MEMB     154      SAPS     C215     CEL1    -0.150000       12.0110           0
     17899 MEMB     154      SAPS     H15R     HEL1     0.150000       1.00800           0
     17900 MEMB     154      SAPS     C216     CTL2    -0.180000       12.0110           0
     17901 MEMB     154      SAPS     H16R     HAL2     0.900000E-01   1.00800           0
     17902 MEMB     154      SAPS     H16S     HAL2     0.900000E-01   1.00800           0
     17903 MEMB     154      SAPS     C217     CTL2    -0.180000       12.0110           0
     17904 MEMB     154      SAPS     H17R     HAL2     0.900000E-01   1.00800           0
     17905 MEMB     154      SAPS     H17S     HAL2     0.900000E-01   1.00800           0
     17906 MEMB     154      SAPS     C218     CTL2    -0.180000       12.0110           0
     17907 MEMB     154      SAPS     H18R     HAL2     0.900000E-01   1.00800           0
     17908 MEMB     154      SAPS     H18S     HAL2     0.900000E-01   1.00800           0
     17909 MEMB     154      SAPS     C219     CTL2    -0.180000       12.0110           0
     17910 MEMB     154      SAPS     H19R     HAL2     0.900000E-01   1.00800           0
     17911 MEMB     154      SAPS     H19S     HAL2     0.900000E-01   1.00800           0
     17912 MEMB     154      SAPS     C220     CTL3    -0.270000       12.0110           0
     17913 MEMB     154      SAPS     H20R     HAL3     0.900000E-01   1.00800           0
     17914 MEMB     154      SAPS     H20S     HAL3     0.900000E-01   1.00800           0
     17915 MEMB     154      SAPS     H20T     HAL3     0.900000E-01   1.00800           0
     17916 MEMB     154      SAPS     C33      CTL2    -0.180000       12.0110           0
     17917 MEMB     154      SAPS     H3X      HAL2     0.900000E-01   1.00800           0
     17918 MEMB     154      SAPS     H3Y      HAL2     0.900000E-01   1.00800           0
     17919 MEMB     154      SAPS     C34      CTL2    -0.180000       12.0110           0
     17920 MEMB     154      SAPS     H4X      HAL2     0.900000E-01   1.00800           0
     17921 MEMB     154      SAPS     H4Y      HAL2     0.900000E-01   1.00800           0
     17922 MEMB     154      SAPS     C35      CTL2    -0.180000       12.0110           0
     17923 MEMB     154      SAPS     H5X      HAL2     0.900000E-01   1.00800           0
     17924 MEMB     154      SAPS     H5Y      HAL2     0.900000E-01   1.00800           0
     17925 MEMB     154      SAPS     C36      CTL2    -0.180000       12.0110           0
     17926 MEMB     154      SAPS     H6X      HAL2     0.900000E-01   1.00800           0
     17927 MEMB     154      SAPS     H6Y      HAL2     0.900000E-01   1.00800           0
     17928 MEMB     154      SAPS     C37      CTL2    -0.180000       12.0110           0
     17929 MEMB     154      SAPS     H7X      HAL2     0.900000E-01   1.00800           0
     17930 MEMB     154      SAPS     H7Y      HAL2     0.900000E-01   1.00800           0
     17931 MEMB     154      SAPS     C38      CTL2    -0.180000       12.0110           0
     17932 MEMB     154      SAPS     H8X      HAL2     0.900000E-01   1.00800           0
     17933 MEMB     154      SAPS     H8Y      HAL2     0.900000E-01   1.00800           0
     17934 MEMB     154      SAPS     C39      CTL2    -0.180000       12.0110           0
     17935 MEMB     154      SAPS     H9X      HAL2     0.900000E-01   1.00800           0
     17936 MEMB     154      SAPS     H9Y      HAL2     0.900000E-01   1.00800           0
     17937 MEMB     154      SAPS     C310     CTL2    -0.180000       12.0110           0
     17938 MEMB     154      SAPS     H10X     HAL2     0.900000E-01   1.00800           0
     17939 MEMB     154      SAPS     H10Y     HAL2     0.900000E-01   1.00800           0
     17940 MEMB     154      SAPS     C311     CTL2    -0.180000       12.0110           0
     17941 MEMB     154      SAPS     H11X     HAL2     0.900000E-01   1.00800           0
     17942 MEMB     154      SAPS     H11Y     HAL2     0.900000E-01   1.00800           0
     17943 MEMB     154      SAPS     C312     CTL2    -0.180000       12.0110           0
     17944 MEMB     154      SAPS     H12X     HAL2     0.900000E-01   1.00800           0
     17945 MEMB     154      SAPS     H12Y     HAL2     0.900000E-01   1.00800           0
     17946 MEMB     154      SAPS     C313     CTL2    -0.180000       12.0110           0
     17947 MEMB     154      SAPS     H13X     HAL2     0.900000E-01   1.00800           0
     17948 MEMB     154      SAPS     H13Y     HAL2     0.900000E-01   1.00800           0
     17949 MEMB     154      SAPS     C314     CTL2    -0.180000       12.0110           0
     17950 MEMB     154      SAPS     H14X     HAL2     0.900000E-01   1.00800           0
     17951 MEMB     154      SAPS     H14Y     HAL2     0.900000E-01   1.00800           0
     17952 MEMB     154      SAPS     C315     CTL2    -0.180000       12.0110           0
     17953 MEMB     154      SAPS     H15X     HAL2     0.900000E-01   1.00800           0
     17954 MEMB     154      SAPS     H15Y     HAL2     0.900000E-01   1.00800           0
     17955 MEMB     154      SAPS     C316     CTL2    -0.180000       12.0110           0
     17956 MEMB     154      SAPS     H16X     HAL2     0.900000E-01   1.00800           0
     17957 MEMB     154      SAPS     H16Y     HAL2     0.900000E-01   1.00800           0
     17958 MEMB     154      SAPS     C317     CTL2    -0.180000       12.0110           0
     17959 MEMB     154      SAPS     H17X     HAL2     0.900000E-01   1.00800           0
     17960 MEMB     154      SAPS     H17Y     HAL2     0.900000E-01   1.00800           0
     17961 MEMB     154      SAPS     C318     CTL3    -0.270000       12.0110           0
     17962 MEMB     154      SAPS     H18X     HAL3     0.900000E-01   1.00800           0
     17963 MEMB     154      SAPS     H18Y     HAL3     0.900000E-01   1.00800           0
     17964 MEMB     154      SAPS     H18Z     HAL3     0.900000E-01   1.00800           0
     17965 MEMB     155      SAPI     C12      CC3161   0.140000       12.0110           0
     17966 MEMB     155      SAPI     H2       HCA1     0.900000E-01   1.00800           0
     17967 MEMB     155      SAPI     O2       OC311   -0.650000       15.9994           0
     17968 MEMB     155      SAPI     HO2      HCP1     0.420000       1.00800           0
     17969 MEMB     155      SAPI     C13      CC3161   0.140000       12.0110           0
     17970 MEMB     155      SAPI     H3       HCA1     0.900000E-01   1.00800           0
     17971 MEMB     155      SAPI     O3       OC311   -0.650000       15.9994           0
     17972 MEMB     155      SAPI     HO3      HCP1     0.420000       1.00800           0
     17973 MEMB     155      SAPI     C14      CC3161   0.140000       12.0110           0
     17974 MEMB     155      SAPI     H4       HCA1     0.900000E-01   1.00800           0
     17975 MEMB     155      SAPI     O4       OC311   -0.650000       15.9994           0
     17976 MEMB     155      SAPI     HO4      HCP1     0.420000       1.00800           0
     17977 MEMB     155      SAPI     C15      CC3161   0.140000       12.0110           0
     17978 MEMB     155      SAPI     H5       HCA1     0.900000E-01   1.00800           0
     17979 MEMB     155      SAPI     O5       OC311   -0.650000       15.9994           0
     17980 MEMB     155      SAPI     HO5      HCP1     0.420000       1.00800           0
     17981 MEMB     155      SAPI     C16      CC3161   0.140000       12.0110           0
     17982 MEMB     155      SAPI     H6       HCA1     0.900000E-01   1.00800           0
     17983 MEMB     155      SAPI     O6       OC311   -0.650000       15.9994           0
     17984 MEMB     155      SAPI     HO6      HCP1     0.420000       1.00800           0
     17985 MEMB     155      SAPI     C11      CC3161  -0.800000E-01   12.0110           0
     17986 MEMB     155      SAPI     H1       HCA1     0.900000E-01   1.00800           0
     17987 MEMB     155      SAPI     P        PL        1.59000       30.9740           0
     17988 MEMB     155      SAPI     O13      O2L     -0.780000       15.9994           0
     17989 MEMB     155      SAPI     O14      O2L     -0.780000       15.9994           0
     17990 MEMB     155      SAPI     O12      OC30P   -0.570000       15.9994           0
     17991 MEMB     155      SAPI     O11      OSLP    -0.570000       15.9994           0
     17992 MEMB     155      SAPI     C1       CTL2    -0.800000E-01   12.0110           0
     17993 MEMB     155      SAPI     HA       HAL2     0.900000E-01   1.00800           0
     17994 MEMB     155      SAPI     HB       HAL2     0.900000E-01   1.00800           0
     17995 MEMB     155      SAPI     C2       CTL1     0.170000       12.0110           0
     17996 MEMB     155      SAPI     HS       HAL1     0.900000E-01   1.00800           0
     17997 MEMB     155      SAPI     O21      OSL     -0.490000       15.9994           0
     17998 MEMB     155      SAPI     C21      CL       0.900000       12.0110           0
     17999 MEMB     155      SAPI     O22      OBL     -0.630000       15.9994           0
     18000 MEMB     155      SAPI     C22      CTL2    -0.220000       12.0110           0
     18001 MEMB     155      SAPI     H2R      HAL2     0.900000E-01   1.00800           0
     18002 MEMB     155      SAPI     H2S      HAL2     0.900000E-01   1.00800           0
     18003 MEMB     155      SAPI     C3       CTL2     0.800000E-01   12.0110           0
     18004 MEMB     155      SAPI     HX       HAL2     0.900000E-01   1.00800           0
     18005 MEMB     155      SAPI     HY       HAL2     0.900000E-01   1.00800           0
     18006 MEMB     155      SAPI     O31      OSL     -0.490000       15.9994           0
     18007 MEMB     155      SAPI     C31      CL       0.900000       12.0110           0
     18008 MEMB     155      SAPI     O32      OBL     -0.630000       15.9994           0
     18009 MEMB     155      SAPI     C32      CTL2    -0.220000       12.0110           0
     18010 MEMB     155      SAPI     H2X      HAL2     0.900000E-01   1.00800           0
     18011 MEMB     155      SAPI     H2Y      HAL2     0.900000E-01   1.00800           0
     18012 MEMB     155      SAPI     C23      CTL2    -0.180000       12.0110           0
     18013 MEMB     155      SAPI     H3R      HAL2     0.900000E-01   1.00800           0
     18014 MEMB     155      SAPI     H3S      HAL2     0.900000E-01   1.00800           0
     18015 MEMB     155      SAPI     C24      CTL2    -0.180000       12.0110           0
     18016 MEMB     155      SAPI     H4R      HAL2     0.900000E-01   1.00800           0
     18017 MEMB     155      SAPI     H4S      HAL2     0.900000E-01   1.00800           0
     18018 MEMB     155      SAPI     C25      CEL1    -0.150000       12.0110           0
     18019 MEMB     155      SAPI     H5R      HEL1     0.150000       1.00800           0
     18020 MEMB     155      SAPI     C26      CEL1    -0.150000       12.0110           0
     18021 MEMB     155      SAPI     H6R      HEL1     0.150000       1.00800           0
     18022 MEMB     155      SAPI     C27      CTL2    -0.180000       12.0110           0
     18023 MEMB     155      SAPI     H7R      HAL2     0.900000E-01   1.00800           0
     18024 MEMB     155      SAPI     H7S      HAL2     0.900000E-01   1.00800           0
     18025 MEMB     155      SAPI     C28      CEL1    -0.150000       12.0110           0
     18026 MEMB     155      SAPI     H8R      HEL1     0.150000       1.00800           0
     18027 MEMB     155      SAPI     C29      CEL1    -0.150000       12.0110           0
     18028 MEMB     155      SAPI     H9R      HEL1     0.150000       1.00800           0
     18029 MEMB     155      SAPI     C210     CTL2    -0.180000       12.0110           0
     18030 MEMB     155      SAPI     H10R     HAL2     0.900000E-01   1.00800           0
     18031 MEMB     155      SAPI     H10S     HAL2     0.900000E-01   1.00800           0
     18032 MEMB     155      SAPI     C211     CEL1    -0.150000       12.0110           0
     18033 MEMB     155      SAPI     H11R     HEL1     0.150000       1.00800           0
     18034 MEMB     155      SAPI     C212     CEL1    -0.150000       12.0110           0
     18035 MEMB     155      SAPI     H12R     HEL1     0.150000       1.00800           0
     18036 MEMB     155      SAPI     C213     CTL2    -0.180000       12.0110           0
     18037 MEMB     155      SAPI     H13R     HAL2     0.900000E-01   1.00800           0
     18038 MEMB     155      SAPI     H13S     HAL2     0.900000E-01   1.00800           0
     18039 MEMB     155      SAPI     C214     CEL1    -0.150000       12.0110           0
     18040 MEMB     155      SAPI     H14R     HEL1     0.150000       1.00800           0
     18041 MEMB     155      SAPI     C215     CEL1    -0.150000       12.0110           0
     18042 MEMB     155      SAPI     H15R     HEL1     0.150000       1.00800           0
     18043 MEMB     155      SAPI     C216     CTL2    -0.180000       12.0110           0
     18044 MEMB     155      SAPI     H16R     HAL2     0.900000E-01   1.00800           0
     18045 MEMB     155      SAPI     H16S     HAL2     0.900000E-01   1.00800           0
     18046 MEMB     155      SAPI     C217     CTL2    -0.180000       12.0110           0
     18047 MEMB     155      SAPI     H17R     HAL2     0.900000E-01   1.00800           0
     18048 MEMB     155      SAPI     H17S     HAL2     0.900000E-01   1.00800           0
     18049 MEMB     155      SAPI     C218     CTL2    -0.180000       12.0110           0
     18050 MEMB     155      SAPI     H18R     HAL2     0.900000E-01   1.00800           0
     18051 MEMB     155      SAPI     H18S     HAL2     0.900000E-01   1.00800           0
     18052 MEMB     155      SAPI     C219     CTL2    -0.180000       12.0110           0
     18053 MEMB     155      SAPI     H19R     HAL2     0.900000E-01   1.00800           0
     18054 MEMB     155      SAPI     H19S     HAL2     0.900000E-01   1.00800           0
     18055 MEMB     155      SAPI     C220     CTL3    -0.270000       12.0110           0
     18056 MEMB     155      SAPI     H20R     HAL3     0.900000E-01   1.00800           0
     18057 MEMB     155      SAPI     H20S     HAL3     0.900000E-01   1.00800           0
     18058 MEMB     155      SAPI     H20T     HAL3     0.900000E-01   1.00800           0
     18059 MEMB     155      SAPI     C33      CTL2    -0.180000       12.0110           0
     18060 MEMB     155      SAPI     H3X      HAL2     0.900000E-01   1.00800           0
     18061 MEMB     155      SAPI     H3Y      HAL2     0.900000E-01   1.00800           0
     18062 MEMB     155      SAPI     C34      CTL2    -0.180000       12.0110           0
     18063 MEMB     155      SAPI     H4X      HAL2     0.900000E-01   1.00800           0
     18064 MEMB     155      SAPI     H4Y      HAL2     0.900000E-01   1.00800           0
     18065 MEMB     155      SAPI     C35      CTL2    -0.180000       12.0110           0
     18066 MEMB     155      SAPI     H5X      HAL2     0.900000E-01   1.00800           0
     18067 MEMB     155      SAPI     H5Y      HAL2     0.900000E-01   1.00800           0
     18068 MEMB     155      SAPI     C36      CTL2    -0.180000       12.0110           0
     18069 MEMB     155      SAPI     H6X      HAL2     0.900000E-01   1.00800           0
     18070 MEMB     155      SAPI     H6Y      HAL2     0.900000E-01   1.00800           0
     18071 MEMB     155      SAPI     C37      CTL2    -0.180000       12.0110           0
     18072 MEMB     155      SAPI     H7X      HAL2     0.900000E-01   1.00800           0
     18073 MEMB     155      SAPI     H7Y      HAL2     0.900000E-01   1.00800           0
     18074 MEMB     155      SAPI     C38      CTL2    -0.180000       12.0110           0
     18075 MEMB     155      SAPI     H8X      HAL2     0.900000E-01   1.00800           0
     18076 MEMB     155      SAPI     H8Y      HAL2     0.900000E-01   1.00800           0
     18077 MEMB     155      SAPI     C39      CTL2    -0.180000       12.0110           0
     18078 MEMB     155      SAPI     H9X      HAL2     0.900000E-01   1.00800           0
     18079 MEMB     155      SAPI     H9Y      HAL2     0.900000E-01   1.00800           0
     18080 MEMB     155      SAPI     C310     CTL2    -0.180000       12.0110           0
     18081 MEMB     155      SAPI     H10X     HAL2     0.900000E-01   1.00800           0
     18082 MEMB     155      SAPI     H10Y     HAL2     0.900000E-01   1.00800           0
     18083 MEMB     155      SAPI     C311     CTL2    -0.180000       12.0110           0
     18084 MEMB     155      SAPI     H11X     HAL2     0.900000E-01   1.00800           0
     18085 MEMB     155      SAPI     H11Y     HAL2     0.900000E-01   1.00800           0
     18086 MEMB     155      SAPI     C312     CTL2    -0.180000       12.0110           0
     18087 MEMB     155      SAPI     H12X     HAL2     0.900000E-01   1.00800           0
     18088 MEMB     155      SAPI     H12Y     HAL2     0.900000E-01   1.00800           0
     18089 MEMB     155      SAPI     C313     CTL2    -0.180000       12.0110           0
     18090 MEMB     155      SAPI     H13X     HAL2     0.900000E-01   1.00800           0
     18091 MEMB     155      SAPI     H13Y     HAL2     0.900000E-01   1.00800           0
     18092 MEMB     155      SAPI     C314     CTL2    -0.180000       12.0110           0
     18093 MEMB     155      SAPI     H14X     HAL2     0.900000E-01   1.00800           0
     18094 MEMB     155      SAPI     H14Y     HAL2     0.900000E-01   1.00800           0
     18095 MEMB     155      SAPI     C315     CTL2    -0.180000       12.0110           0
     18096 MEMB     155      SAPI     H15X     HAL2     0.900000E-01   1.00800           0
     18097 MEMB     155      SAPI     H15Y     HAL2     0.900000E-01   1.00800           0
     18098 MEMB     155      SAPI     C316     CTL2    -0.180000       12.0110           0
     18099 MEMB     155      SAPI     H16X     HAL2     0.900000E-01   1.00800           0
     18100 MEMB     155      SAPI     H16Y     HAL2     0.900000E-01   1.00800           0
     18101 MEMB     155      SAPI     C317     CTL2    -0.180000       12.0110           0
     18102 MEMB     155      SAPI     H17X     HAL2     0.900000E-01   1.00800           0
     18103 MEMB     155      SAPI     H17Y     HAL2     0.900000E-01   1.00800           0
     18104 MEMB     155      SAPI     C318     CTL3    -0.270000       12.0110           0
     18105 MEMB     155      SAPI     H18X     HAL3     0.900000E-01   1.00800           0
     18106 MEMB     155      SAPI     H18Y     HAL3     0.900000E-01   1.00800           0
     18107 MEMB     155      SAPI     H18Z     HAL3     0.900000E-01   1.00800           0
     18108 MEMB     156      SAPE     N        NH3L    -0.300000       14.0070           0
     18109 MEMB     156      SAPE     HN1      HCL      0.330000       1.00800           0
     18110 MEMB     156      SAPE     HN2      HCL      0.330000       1.00800           0
     18111 MEMB     156      SAPE     HN3      HCL      0.330000       1.00800           0
     18112 MEMB     156      SAPE     C12      CTL2     0.130000       12.0110           0
     18113 MEMB     156      SAPE     H12A     HAL2     0.900000E-01   1.00800           0
     18114 MEMB     156      SAPE     H12B     HAL2     0.900000E-01   1.00800           0
     18115 MEMB     156      SAPE     C11      CTL2    -0.800000E-01   12.0110           0
     18116 MEMB     156      SAPE     H11A     HAL2     0.900000E-01   1.00800           0
     18117 MEMB     156      SAPE     H11B     HAL2     0.900000E-01   1.00800           0
     18118 MEMB     156      SAPE     P        PL        1.50000       30.9740           0
     18119 MEMB     156      SAPE     O13      O2L     -0.780000       15.9994           0
     18120 MEMB     156      SAPE     O14      O2L     -0.780000       15.9994           0
     18121 MEMB     156      SAPE     O12      OSLP    -0.570000       15.9994           0
     18122 MEMB     156      SAPE     O11      OSLP    -0.570000       15.9994           0
     18123 MEMB     156      SAPE     C1       CTL2    -0.800000E-01   12.0110           0
     18124 MEMB     156      SAPE     HA       HAL2     0.900000E-01   1.00800           0
     18125 MEMB     156      SAPE     HB       HAL2     0.900000E-01   1.00800           0
     18126 MEMB     156      SAPE     C2       CTL1     0.170000       12.0110           0
     18127 MEMB     156      SAPE     HS       HAL1     0.900000E-01   1.00800           0
     18128 MEMB     156      SAPE     O21      OSL     -0.490000       15.9994           0
     18129 MEMB     156      SAPE     C21      CL       0.900000       12.0110           0
     18130 MEMB     156      SAPE     O22      OBL     -0.630000       15.9994           0
     18131 MEMB     156      SAPE     C22      CTL2    -0.220000       12.0110           0
     18132 MEMB     156      SAPE     H2R      HAL2     0.900000E-01   1.00800           0
     18133 MEMB     156      SAPE     H2S      HAL2     0.900000E-01   1.00800           0
     18134 MEMB     156      SAPE     C3       CTL2     0.800000E-01   12.0110           0
     18135 MEMB     156      SAPE     HX       HAL2     0.900000E-01   1.00800           0
     18136 MEMB     156      SAPE     HY       HAL2     0.900000E-01   1.00800           0
     18137 MEMB     156      SAPE     O31      OSL     -0.490000       15.9994           0
     18138 MEMB     156      SAPE     C31      CL       0.900000       12.0110           0
     18139 MEMB     156      SAPE     O32      OBL     -0.630000       15.9994           0
     18140 MEMB     156      SAPE     C32      CTL2    -0.220000       12.0110           0
     18141 MEMB     156      SAPE     H2X      HAL2     0.900000E-01   1.00800           0
     18142 MEMB     156      SAPE     H2Y      HAL2     0.900000E-01   1.00800           0
     18143 MEMB     156      SAPE     C23      CTL2    -0.180000       12.0110           0
     18144 MEMB     156      SAPE     H3R      HAL2     0.900000E-01   1.00800           0
     18145 MEMB     156      SAPE     H3S      HAL2     0.900000E-01   1.00800           0
     18146 MEMB     156      SAPE     C24      CTL2    -0.180000       12.0110           0
     18147 MEMB     156      SAPE     H4R      HAL2     0.900000E-01   1.00800           0
     18148 MEMB     156      SAPE     H4S      HAL2     0.900000E-01   1.00800           0
     18149 MEMB     156      SAPE     C25      CEL1    -0.150000       12.0110           0
     18150 MEMB     156      SAPE     H5R      HEL1     0.150000       1.00800           0
     18151 MEMB     156      SAPE     C26      CEL1    -0.150000       12.0110           0
     18152 MEMB     156      SAPE     H6R      HEL1     0.150000       1.00800           0
     18153 MEMB     156      SAPE     C27      CTL2    -0.180000       12.0110           0
     18154 MEMB     156      SAPE     H7R      HAL2     0.900000E-01   1.00800           0
     18155 MEMB     156      SAPE     H7S      HAL2     0.900000E-01   1.00800           0
     18156 MEMB     156      SAPE     C28      CEL1    -0.150000       12.0110           0
     18157 MEMB     156      SAPE     H8R      HEL1     0.150000       1.00800           0
     18158 MEMB     156      SAPE     C29      CEL1    -0.150000       12.0110           0
     18159 MEMB     156      SAPE     H9R      HEL1     0.150000       1.00800           0
     18160 MEMB     156      SAPE     C210     CTL2    -0.180000       12.0110           0
     18161 MEMB     156      SAPE     H10R     HAL2     0.900000E-01   1.00800           0
     18162 MEMB     156      SAPE     H10S     HAL2     0.900000E-01   1.00800           0
     18163 MEMB     156      SAPE     C211     CEL1    -0.150000       12.0110           0
     18164 MEMB     156      SAPE     H11R     HEL1     0.150000       1.00800           0
     18165 MEMB     156      SAPE     C212     CEL1    -0.150000       12.0110           0
     18166 MEMB     156      SAPE     H12R     HEL1     0.150000       1.00800           0
     18167 MEMB     156      SAPE     C213     CTL2    -0.180000       12.0110           0
     18168 MEMB     156      SAPE     H13R     HAL2     0.900000E-01   1.00800           0
     18169 MEMB     156      SAPE     H13S     HAL2     0.900000E-01   1.00800           0
     18170 MEMB     156      SAPE     C214     CEL1    -0.150000       12.0110           0
     18171 MEMB     156      SAPE     H14R     HEL1     0.150000       1.00800           0
     18172 MEMB     156      SAPE     C215     CEL1    -0.150000       12.0110           0
     18173 MEMB     156      SAPE     H15R     HEL1     0.150000       1.00800           0
     18174 MEMB     156      SAPE     C216     CTL2    -0.180000       12.0110           0
     18175 MEMB     156      SAPE     H16R     HAL2     0.900000E-01   1.00800           0
     18176 MEMB     156      SAPE     H16S     HAL2     0.900000E-01   1.00800           0
     18177 MEMB     156      SAPE     C217     CTL2    -0.180000       12.0110           0
     18178 MEMB     156      SAPE     H17R     HAL2     0.900000E-01   1.00800           0
     18179 MEMB     156      SAPE     H17S     HAL2     0.900000E-01   1.00800           0
     18180 MEMB     156      SAPE     C218     CTL2    -0.180000       12.0110           0
     18181 MEMB     156      SAPE     H18R     HAL2     0.900000E-01   1.00800           0
     18182 MEMB     156      SAPE     H18S     HAL2     0.900000E-01   1.00800           0
     18183 MEMB     156      SAPE     C219     CTL2    -0.180000       12.0110           0
     18184 MEMB     156      SAPE     H19R     HAL2     0.900000E-01   1.00800           0
     18185 MEMB     156      SAPE     H19S     HAL2     0.900000E-01   1.00800           0
     18186 MEMB     156      SAPE     C220     CTL3    -0.270000       12.0110           0
     18187 MEMB     156      SAPE     H20R     HAL3     0.900000E-01   1.00800           0
     18188 MEMB     156      SAPE     H20S     HAL3     0.900000E-01   1.00800           0
     18189 MEMB     156      SAPE     H20T     HAL3     0.900000E-01   1.00800           0
     18190 MEMB     156      SAPE     C33      CTL2    -0.180000       12.0110           0
     18191 MEMB     156      SAPE     H3X      HAL2     0.900000E-01   1.00800           0
     18192 MEMB     156      SAPE     H3Y      HAL2     0.900000E-01   1.00800           0
     18193 MEMB     156      SAPE     C34      CTL2    -0.180000       12.0110           0
     18194 MEMB     156      SAPE     H4X      HAL2     0.900000E-01   1.00800           0
     18195 MEMB     156      SAPE     H4Y      HAL2     0.900000E-01   1.00800           0
     18196 MEMB     156      SAPE     C35      CTL2    -0.180000       12.0110           0
     18197 MEMB     156      SAPE     H5X      HAL2     0.900000E-01   1.00800           0
     18198 MEMB     156      SAPE     H5Y      HAL2     0.900000E-01   1.00800           0
     18199 MEMB     156      SAPE     C36      CTL2    -0.180000       12.0110           0
     18200 MEMB     156      SAPE     H6X      HAL2     0.900000E-01   1.00800           0
     18201 MEMB     156      SAPE     H6Y      HAL2     0.900000E-01   1.00800           0
     18202 MEMB     156      SAPE     C37      CTL2    -0.180000       12.0110           0
     18203 MEMB     156      SAPE     H7X      HAL2     0.900000E-01   1.00800           0
     18204 MEMB     156      SAPE     H7Y      HAL2     0.900000E-01   1.00800           0
     18205 MEMB     156      SAPE     C38      CTL2    -0.180000       12.0110           0
     18206 MEMB     156      SAPE     H8X      HAL2     0.900000E-01   1.00800           0
     18207 MEMB     156      SAPE     H8Y      HAL2     0.900000E-01   1.00800           0
     18208 MEMB     156      SAPE     C39      CTL2    -0.180000       12.0110           0
     18209 MEMB     156      SAPE     H9X      HAL2     0.900000E-01   1.00800           0
     18210 MEMB     156      SAPE     H9Y      HAL2     0.900000E-01   1.00800           0
     18211 MEMB     156      SAPE     C310     CTL2    -0.180000       12.0110           0
     18212 MEMB     156      SAPE     H10X     HAL2     0.900000E-01   1.00800           0
     18213 MEMB     156      SAPE     H10Y     HAL2     0.900000E-01   1.00800           0
     18214 MEMB     156      SAPE     C311     CTL2    -0.180000       12.0110           0
     18215 MEMB     156      SAPE     H11X     HAL2     0.900000E-01   1.00800           0
     18216 MEMB     156      SAPE     H11Y     HAL2     0.900000E-01   1.00800           0
     18217 MEMB     156      SAPE     C312     CTL2    -0.180000       12.0110           0
     18218 MEMB     156      SAPE     H12X     HAL2     0.900000E-01   1.00800           0
     18219 MEMB     156      SAPE     H12Y     HAL2     0.900000E-01   1.00800           0
     18220 MEMB     156      SAPE     C313     CTL2    -0.180000       12.0110           0
     18221 MEMB     156      SAPE     H13X     HAL2     0.900000E-01   1.00800           0
     18222 MEMB     156      SAPE     H13Y     HAL2     0.900000E-01   1.00800           0
     18223 MEMB     156      SAPE     C314     CTL2    -0.180000       12.0110           0
     18224 MEMB     156      SAPE     H14X     HAL2     0.900000E-01   1.00800           0
     18225 MEMB     156      SAPE     H14Y     HAL2     0.900000E-01   1.00800           0
     18226 MEMB     156      SAPE     C315     CTL2    -0.180000       12.0110           0
     18227 MEMB     156      SAPE     H15X     HAL2     0.900000E-01   1.00800           0
     18228 MEMB     156      SAPE     H15Y     HAL2     0.900000E-01   1.00800           0
     18229 MEMB     156      SAPE     C316     CTL2    -0.180000       12.0110           0
     18230 MEMB     156      SAPE     H16X     HAL2     0.900000E-01   1.00800           0
     18231 MEMB     156      SAPE     H16Y     HAL2     0.900000E-01   1.00800           0
     18232 MEMB     156      SAPE     C317     CTL2    -0.180000       12.0110           0
     18233 MEMB     156      SAPE     H17X     HAL2     0.900000E-01   1.00800           0
     18234 MEMB     156      SAPE     H17Y     HAL2     0.900000E-01   1.00800           0
     18235 MEMB     156      SAPE     C318     CTL3    -0.270000       12.0110           0
     18236 MEMB     156      SAPE     H18X     HAL3     0.900000E-01   1.00800           0
     18237 MEMB     156      SAPE     H18Y     HAL3     0.900000E-01   1.00800           0
     18238 MEMB     156      SAPE     H18Z     HAL3     0.900000E-01   1.00800           0
     18239 MEMB     157      SAPE     N        NH3L    -0.300000       14.0070           0
     18240 MEMB     157      SAPE     HN1      HCL      0.330000       1.00800           0
     18241 MEMB     157      SAPE     HN2      HCL      0.330000       1.00800           0
     18242 MEMB     157      SAPE     HN3      HCL      0.330000       1.00800           0
     18243 MEMB     157      SAPE     C12      CTL2     0.130000       12.0110           0
     18244 MEMB     157      SAPE     H12A     HAL2     0.900000E-01   1.00800           0
     18245 MEMB     157      SAPE     H12B     HAL2     0.900000E-01   1.00800           0
     18246 MEMB     157      SAPE     C11      CTL2    -0.800000E-01   12.0110           0
     18247 MEMB     157      SAPE     H11A     HAL2     0.900000E-01   1.00800           0
     18248 MEMB     157      SAPE     H11B     HAL2     0.900000E-01   1.00800           0
     18249 MEMB     157      SAPE     P        PL        1.50000       30.9740           0
     18250 MEMB     157      SAPE     O13      O2L     -0.780000       15.9994           0
     18251 MEMB     157      SAPE     O14      O2L     -0.780000       15.9994           0
     18252 MEMB     157      SAPE     O12      OSLP    -0.570000       15.9994           0
     18253 MEMB     157      SAPE     O11      OSLP    -0.570000       15.9994           0
     18254 MEMB     157      SAPE     C1       CTL2    -0.800000E-01   12.0110           0
     18255 MEMB     157      SAPE     HA       HAL2     0.900000E-01   1.00800           0
     18256 MEMB     157      SAPE     HB       HAL2     0.900000E-01   1.00800           0
     18257 MEMB     157      SAPE     C2       CTL1     0.170000       12.0110           0
     18258 MEMB     157      SAPE     HS       HAL1     0.900000E-01   1.00800           0
     18259 MEMB     157      SAPE     O21      OSL     -0.490000       15.9994           0
     18260 MEMB     157      SAPE     C21      CL       0.900000       12.0110           0
     18261 MEMB     157      SAPE     O22      OBL     -0.630000       15.9994           0
     18262 MEMB     157      SAPE     C22      CTL2    -0.220000       12.0110           0
     18263 MEMB     157      SAPE     H2R      HAL2     0.900000E-01   1.00800           0
     18264 MEMB     157      SAPE     H2S      HAL2     0.900000E-01   1.00800           0
     18265 MEMB     157      SAPE     C3       CTL2     0.800000E-01   12.0110           0
     18266 MEMB     157      SAPE     HX       HAL2     0.900000E-01   1.00800           0
     18267 MEMB     157      SAPE     HY       HAL2     0.900000E-01   1.00800           0
     18268 MEMB     157      SAPE     O31      OSL     -0.490000       15.9994           0
     18269 MEMB     157      SAPE     C31      CL       0.900000       12.0110           0
     18270 MEMB     157      SAPE     O32      OBL     -0.630000       15.9994           0
     18271 MEMB     157      SAPE     C32      CTL2    -0.220000       12.0110           0
     18272 MEMB     157      SAPE     H2X      HAL2     0.900000E-01   1.00800           0
     18273 MEMB     157      SAPE     H2Y      HAL2     0.900000E-01   1.00800           0
     18274 MEMB     157      SAPE     C23      CTL2    -0.180000       12.0110           0
     18275 MEMB     157      SAPE     H3R      HAL2     0.900000E-01   1.00800           0
     18276 MEMB     157      SAPE     H3S      HAL2     0.900000E-01   1.00800           0
     18277 MEMB     157      SAPE     C24      CTL2    -0.180000       12.0110           0
     18278 MEMB     157      SAPE     H4R      HAL2     0.900000E-01   1.00800           0
     18279 MEMB     157      SAPE     H4S      HAL2     0.900000E-01   1.00800           0
     18280 MEMB     157      SAPE     C25      CEL1    -0.150000       12.0110           0
     18281 MEMB     157      SAPE     H5R      HEL1     0.150000       1.00800           0
     18282 MEMB     157      SAPE     C26      CEL1    -0.150000       12.0110           0
     18283 MEMB     157      SAPE     H6R      HEL1     0.150000       1.00800           0
     18284 MEMB     157      SAPE     C27      CTL2    -0.180000       12.0110           0
     18285 MEMB     157      SAPE     H7R      HAL2     0.900000E-01   1.00800           0
     18286 MEMB     157      SAPE     H7S      HAL2     0.900000E-01   1.00800           0
     18287 MEMB     157      SAPE     C28      CEL1    -0.150000       12.0110           0
     18288 MEMB     157      SAPE     H8R      HEL1     0.150000       1.00800           0
     18289 MEMB     157      SAPE     C29      CEL1    -0.150000       12.0110           0
     18290 MEMB     157      SAPE     H9R      HEL1     0.150000       1.00800           0
     18291 MEMB     157      SAPE     C210     CTL2    -0.180000       12.0110           0
     18292 MEMB     157      SAPE     H10R     HAL2     0.900000E-01   1.00800           0
     18293 MEMB     157      SAPE     H10S     HAL2     0.900000E-01   1.00800           0
     18294 MEMB     157      SAPE     C211     CEL1    -0.150000       12.0110           0
     18295 MEMB     157      SAPE     H11R     HEL1     0.150000       1.00800           0
     18296 MEMB     157      SAPE     C212     CEL1    -0.150000       12.0110           0
     18297 MEMB     157      SAPE     H12R     HEL1     0.150000       1.00800           0
     18298 MEMB     157      SAPE     C213     CTL2    -0.180000       12.0110           0
     18299 MEMB     157      SAPE     H13R     HAL2     0.900000E-01   1.00800           0
     18300 MEMB     157      SAPE     H13S     HAL2     0.900000E-01   1.00800           0
     18301 MEMB     157      SAPE     C214     CEL1    -0.150000       12.0110           0
     18302 MEMB     157      SAPE     H14R     HEL1     0.150000       1.00800           0
     18303 MEMB     157      SAPE     C215     CEL1    -0.150000       12.0110           0
     18304 MEMB     157      SAPE     H15R     HEL1     0.150000       1.00800           0
     18305 MEMB     157      SAPE     C216     CTL2    -0.180000       12.0110           0
     18306 MEMB     157      SAPE     H16R     HAL2     0.900000E-01   1.00800           0
     18307 MEMB     157      SAPE     H16S     HAL2     0.900000E-01   1.00800           0
     18308 MEMB     157      SAPE     C217     CTL2    -0.180000       12.0110           0
     18309 MEMB     157      SAPE     H17R     HAL2     0.900000E-01   1.00800           0
     18310 MEMB     157      SAPE     H17S     HAL2     0.900000E-01   1.00800           0
     18311 MEMB     157      SAPE     C218     CTL2    -0.180000       12.0110           0
     18312 MEMB     157      SAPE     H18R     HAL2     0.900000E-01   1.00800           0
     18313 MEMB     157      SAPE     H18S     HAL2     0.900000E-01   1.00800           0
     18314 MEMB     157      SAPE     C219     CTL2    -0.180000       12.0110           0
     18315 MEMB     157      SAPE     H19R     HAL2     0.900000E-01   1.00800           0
     18316 MEMB     157      SAPE     H19S     HAL2     0.900000E-01   1.00800           0
     18317 MEMB     157      SAPE     C220     CTL3    -0.270000       12.0110           0
     18318 MEMB     157      SAPE     H20R     HAL3     0.900000E-01   1.00800           0
     18319 MEMB     157      SAPE     H20S     HAL3     0.900000E-01   1.00800           0
     18320 MEMB     157      SAPE     H20T     HAL3     0.900000E-01   1.00800           0
     18321 MEMB     157      SAPE     C33      CTL2    -0.180000       12.0110           0
     18322 MEMB     157      SAPE     H3X      HAL2     0.900000E-01   1.00800           0
     18323 MEMB     157      SAPE     H3Y      HAL2     0.900000E-01   1.00800           0
     18324 MEMB     157      SAPE     C34      CTL2    -0.180000       12.0110           0
     18325 MEMB     157      SAPE     H4X      HAL2     0.900000E-01   1.00800           0
     18326 MEMB     157      SAPE     H4Y      HAL2     0.900000E-01   1.00800           0
     18327 MEMB     157      SAPE     C35      CTL2    -0.180000       12.0110           0
     18328 MEMB     157      SAPE     H5X      HAL2     0.900000E-01   1.00800           0
     18329 MEMB     157      SAPE     H5Y      HAL2     0.900000E-01   1.00800           0
     18330 MEMB     157      SAPE     C36      CTL2    -0.180000       12.0110           0
     18331 MEMB     157      SAPE     H6X      HAL2     0.900000E-01   1.00800           0
     18332 MEMB     157      SAPE     H6Y      HAL2     0.900000E-01   1.00800           0
     18333 MEMB     157      SAPE     C37      CTL2    -0.180000       12.0110           0
     18334 MEMB     157      SAPE     H7X      HAL2     0.900000E-01   1.00800           0
     18335 MEMB     157      SAPE     H7Y      HAL2     0.900000E-01   1.00800           0
     18336 MEMB     157      SAPE     C38      CTL2    -0.180000       12.0110           0
     18337 MEMB     157      SAPE     H8X      HAL2     0.900000E-01   1.00800           0
     18338 MEMB     157      SAPE     H8Y      HAL2     0.900000E-01   1.00800           0
     18339 MEMB     157      SAPE     C39      CTL2    -0.180000       12.0110           0
     18340 MEMB     157      SAPE     H9X      HAL2     0.900000E-01   1.00800           0
     18341 MEMB     157      SAPE     H9Y      HAL2     0.900000E-01   1.00800           0
     18342 MEMB     157      SAPE     C310     CTL2    -0.180000       12.0110           0
     18343 MEMB     157      SAPE     H10X     HAL2     0.900000E-01   1.00800           0
     18344 MEMB     157      SAPE     H10Y     HAL2     0.900000E-01   1.00800           0
     18345 MEMB     157      SAPE     C311     CTL2    -0.180000       12.0110           0
     18346 MEMB     157      SAPE     H11X     HAL2     0.900000E-01   1.00800           0
     18347 MEMB     157      SAPE     H11Y     HAL2     0.900000E-01   1.00800           0
     18348 MEMB     157      SAPE     C312     CTL2    -0.180000       12.0110           0
     18349 MEMB     157      SAPE     H12X     HAL2     0.900000E-01   1.00800           0
     18350 MEMB     157      SAPE     H12Y     HAL2     0.900000E-01   1.00800           0
     18351 MEMB     157      SAPE     C313     CTL2    -0.180000       12.0110           0
     18352 MEMB     157      SAPE     H13X     HAL2     0.900000E-01   1.00800           0
     18353 MEMB     157      SAPE     H13Y     HAL2     0.900000E-01   1.00800           0
     18354 MEMB     157      SAPE     C314     CTL2    -0.180000       12.0110           0
     18355 MEMB     157      SAPE     H14X     HAL2     0.900000E-01   1.00800           0
     18356 MEMB     157      SAPE     H14Y     HAL2     0.900000E-01   1.00800           0
     18357 MEMB     157      SAPE     C315     CTL2    -0.180000       12.0110           0
     18358 MEMB     157      SAPE     H15X     HAL2     0.900000E-01   1.00800           0
     18359 MEMB     157      SAPE     H15Y     HAL2     0.900000E-01   1.00800           0
     18360 MEMB     157      SAPE     C316     CTL2    -0.180000       12.0110           0
     18361 MEMB     157      SAPE     H16X     HAL2     0.900000E-01   1.00800           0
     18362 MEMB     157      SAPE     H16Y     HAL2     0.900000E-01   1.00800           0
     18363 MEMB     157      SAPE     C317     CTL2    -0.180000       12.0110           0
     18364 MEMB     157      SAPE     H17X     HAL2     0.900000E-01   1.00800           0
     18365 MEMB     157      SAPE     H17Y     HAL2     0.900000E-01   1.00800           0
     18366 MEMB     157      SAPE     C318     CTL3    -0.270000       12.0110           0
     18367 MEMB     157      SAPE     H18X     HAL3     0.900000E-01   1.00800           0
     18368 MEMB     157      SAPE     H18Y     HAL3     0.900000E-01   1.00800           0
     18369 MEMB     157      SAPE     H18Z     HAL3     0.900000E-01   1.00800           0
     18370 MEMB     158      OSM      N        NTL     -0.600000       14.0070           0
     18371 MEMB     158      OSM      C15      CTL5    -0.350000       12.0110           0
     18372 MEMB     158      OSM      H15A     HL       0.250000       1.00800           0
     18373 MEMB     158      OSM      H15B     HL       0.250000       1.00800           0
     18374 MEMB     158      OSM      H15C     HL       0.250000       1.00800           0
     18375 MEMB     158      OSM      C14      CTL5    -0.350000       12.0110           0
     18376 MEMB     158      OSM      H14A     HL       0.250000       1.00800           0
     18377 MEMB     158      OSM      H14B     HL       0.250000       1.00800           0
     18378 MEMB     158      OSM      H14C     HL       0.250000       1.00800           0
     18379 MEMB     158      OSM      C13      CTL5    -0.350000       12.0110           0
     18380 MEMB     158      OSM      H13A     HL       0.250000       1.00800           0
     18381 MEMB     158      OSM      H13B     HL       0.250000       1.00800           0
     18382 MEMB     158      OSM      H13C     HL       0.250000       1.00800           0
     18383 MEMB     158      OSM      C12      CTL2    -0.100000       12.0110           0
     18384 MEMB     158      OSM      H12A     HL       0.250000       1.00800           0
     18385 MEMB     158      OSM      H12B     HL       0.250000       1.00800           0
     18386 MEMB     158      OSM      C11      CTL2    -0.800000E-01   12.0110           0
     18387 MEMB     158      OSM      H11A     HAL2     0.900000E-01   1.00800           0
     18388 MEMB     158      OSM      H11B     HAL2     0.900000E-01   1.00800           0
     18389 MEMB     158      OSM      P        PL        1.50000       30.9740           0
     18390 MEMB     158      OSM      O13      O2L     -0.780000       15.9994           0
     18391 MEMB     158      OSM      O14      O2L     -0.780000       15.9994           0
     18392 MEMB     158      OSM      O11      OSLP    -0.570000       15.9994           0
     18393 MEMB     158      OSM      O12      OSLP    -0.570000       15.9994           0
     18394 MEMB     158      OSM      C1S      CTL2    -0.800000E-01   12.0110           0
     18395 MEMB     158      OSM      H1S      HAL2     0.900000E-01   1.00800           0
     18396 MEMB     158      OSM      H1T      HAL2     0.900000E-01   1.00800           0
     18397 MEMB     158      OSM      NF       NHL     -0.700000       14.0070           0
     18398 MEMB     158      OSM      HNF      H        0.350000       1.00800           0
     18399 MEMB     158      OSM      C2S      CTL1     0.300000       12.0110           0
     18400 MEMB     158      OSM      H2S      HAL1     0.500000E-01   1.00800           0
     18401 MEMB     158      OSM      C3S      CTO1     0.500000       12.0110           0
     18402 MEMB     158      OSM      H3S      HAL1    -0.110000       1.00800           0
     18403 MEMB     158      OSM      O3       OHL     -0.690000       15.9994           0
     18404 MEMB     158      OSM      HO3      HOL      0.300000       1.00800           0
     18405 MEMB     158      OSM      C4S      CEL3    -0.150000       12.0110           0
     18406 MEMB     158      OSM      H4S      HEL1     0.150000       1.00800           0
     18407 MEMB     158      OSM      C5S      CEL3    -0.150000       12.0110           0
     18408 MEMB     158      OSM      H5S      HEL1     0.150000       1.00800           0
     18409 MEMB     158      OSM      C6S      CTL2    -0.180000       12.0110           0
     18410 MEMB     158      OSM      H6S      HAL2     0.900000E-01   1.00800           0
     18411 MEMB     158      OSM      H6T      HAL2     0.900000E-01   1.00800           0
     18412 MEMB     158      OSM      C7S      CTL2    -0.180000       12.0110           0
     18413 MEMB     158      OSM      H7S      HAL2     0.900000E-01   1.00800           0
     18414 MEMB     158      OSM      H7T      HAL2     0.900000E-01   1.00800           0
     18415 MEMB     158      OSM      C8S      CTL2    -0.180000       12.0110           0
     18416 MEMB     158      OSM      H8S      HAL2     0.900000E-01   1.00800           0
     18417 MEMB     158      OSM      H8T      HAL2     0.900000E-01   1.00800           0
     18418 MEMB     158      OSM      C9S      CTL2    -0.180000       12.0110           0
     18419 MEMB     158      OSM      H9S      HAL2     0.900000E-01   1.00800           0
     18420 MEMB     158      OSM      H9T      HAL2     0.900000E-01   1.00800           0
     18421 MEMB     158      OSM      C10S     CTL2    -0.180000       12.0110           0
     18422 MEMB     158      OSM      H10S     HAL2     0.900000E-01   1.00800           0
     18423 MEMB     158      OSM      H10T     HAL2     0.900000E-01   1.00800           0
     18424 MEMB     158      OSM      C11S     CTL2    -0.180000       12.0110           0
     18425 MEMB     158      OSM      H11S     HAL2     0.900000E-01   1.00800           0
     18426 MEMB     158      OSM      H11T     HAL2     0.900000E-01   1.00800           0
     18427 MEMB     158      OSM      C12S     CTL2    -0.180000       12.0110           0
     18428 MEMB     158      OSM      H12S     HAL2     0.900000E-01   1.00800           0
     18429 MEMB     158      OSM      H12T     HAL2     0.900000E-01   1.00800           0
     18430 MEMB     158      OSM      C13S     CTL2    -0.180000       12.0110           0
     18431 MEMB     158      OSM      H13S     HAL2     0.900000E-01   1.00800           0
     18432 MEMB     158      OSM      H13T     HAL2     0.900000E-01   1.00800           0
     18433 MEMB     158      OSM      C14S     CTL2    -0.180000       12.0110           0
     18434 MEMB     158      OSM      H14S     HAL2     0.900000E-01   1.00800           0
     18435 MEMB     158      OSM      H14T     HAL2     0.900000E-01   1.00800           0
     18436 MEMB     158      OSM      C15S     CTL2    -0.180000       12.0110           0
     18437 MEMB     158      OSM      H15S     HAL2     0.900000E-01   1.00800           0
     18438 MEMB     158      OSM      H15T     HAL2     0.900000E-01   1.00800           0
     18439 MEMB     158      OSM      C16S     CTL2    -0.180000       12.0110           0
     18440 MEMB     158      OSM      H16S     HAL2     0.900000E-01   1.00800           0
     18441 MEMB     158      OSM      H16T     HAL2     0.900000E-01   1.00800           0
     18442 MEMB     158      OSM      C17S     CTL2    -0.180000       12.0110           0
     18443 MEMB     158      OSM      H17S     HAL2     0.900000E-01   1.00800           0
     18444 MEMB     158      OSM      H17T     HAL2     0.900000E-01   1.00800           0
     18445 MEMB     158      OSM      C18S     CTL3    -0.270000       12.0110           0
     18446 MEMB     158      OSM      H18S     HAL3     0.900000E-01   1.00800           0
     18447 MEMB     158      OSM      H18T     HAL3     0.900000E-01   1.00800           0
     18448 MEMB     158      OSM      H18U     HAL3     0.900000E-01   1.00800           0
     18449 MEMB     158      OSM      C1F      C        0.550000       12.0110           0
     18450 MEMB     158      OSM      OF       O       -0.600000       15.9994           0
     18451 MEMB     158      OSM      C2F      CTL2    -0.700000E-01   12.0110           0
     18452 MEMB     158      OSM      H2F      HAL2     0.600000E-01   1.00800           0
     18453 MEMB     158      OSM      H2G      HAL2     0.600000E-01   1.00800           0
     18454 MEMB     158      OSM      C3F      CTL2    -0.180000       12.0110           0
     18455 MEMB     158      OSM      H3F      HAL2     0.900000E-01   1.00800           0
     18456 MEMB     158      OSM      H3G      HAL2     0.900000E-01   1.00800           0
     18457 MEMB     158      OSM      C4F      CTL2    -0.180000       12.0110           0
     18458 MEMB     158      OSM      H4F      HAL2     0.900000E-01   1.00800           0
     18459 MEMB     158      OSM      H4G      HAL2     0.900000E-01   1.00800           0
     18460 MEMB     158      OSM      C5F      CTL2    -0.180000       12.0110           0
     18461 MEMB     158      OSM      H5F      HAL2     0.900000E-01   1.00800           0
     18462 MEMB     158      OSM      H5G      HAL2     0.900000E-01   1.00800           0
     18463 MEMB     158      OSM      C6F      CTL2    -0.180000       12.0110           0
     18464 MEMB     158      OSM      H6F      HAL2     0.900000E-01   1.00800           0
     18465 MEMB     158      OSM      H6G      HAL2     0.900000E-01   1.00800           0
     18466 MEMB     158      OSM      C7F      CTL2    -0.180000       12.0110           0
     18467 MEMB     158      OSM      H7F      HAL2     0.900000E-01   1.00800           0
     18468 MEMB     158      OSM      H7G      HAL2     0.900000E-01   1.00800           0
     18469 MEMB     158      OSM      C8F      CTL2    -0.180000       12.0110           0
     18470 MEMB     158      OSM      H8F      HAL2     0.900000E-01   1.00800           0
     18471 MEMB     158      OSM      H8G      HAL2     0.900000E-01   1.00800           0
     18472 MEMB     158      OSM      C9F      CEL1    -0.150000       12.0110           0
     18473 MEMB     158      OSM      H9F      HEL1     0.150000       1.00800           0
     18474 MEMB     158      OSM      C10F     CEL1    -0.150000       12.0110           0
     18475 MEMB     158      OSM      H10F     HEL1     0.150000       1.00800           0
     18476 MEMB     158      OSM      C11F     CTL2    -0.180000       12.0110           0
     18477 MEMB     158      OSM      H11F     HAL2     0.900000E-01   1.00800           0
     18478 MEMB     158      OSM      H11G     HAL2     0.900000E-01   1.00800           0
     18479 MEMB     158      OSM      C12F     CTL2    -0.180000       12.0110           0
     18480 MEMB     158      OSM      H12F     HAL2     0.900000E-01   1.00800           0
     18481 MEMB     158      OSM      H12G     HAL2     0.900000E-01   1.00800           0
     18482 MEMB     158      OSM      C13F     CTL2    -0.180000       12.0110           0
     18483 MEMB     158      OSM      H13F     HAL2     0.900000E-01   1.00800           0
     18484 MEMB     158      OSM      H13G     HAL2     0.900000E-01   1.00800           0
     18485 MEMB     158      OSM      C14F     CTL2    -0.180000       12.0110           0
     18486 MEMB     158      OSM      H14F     HAL2     0.900000E-01   1.00800           0
     18487 MEMB     158      OSM      H14G     HAL2     0.900000E-01   1.00800           0
     18488 MEMB     158      OSM      C15F     CTL2    -0.180000       12.0110           0
     18489 MEMB     158      OSM      H15F     HAL2     0.900000E-01   1.00800           0
     18490 MEMB     158      OSM      H15G     HAL2     0.900000E-01   1.00800           0
     18491 MEMB     158      OSM      C16F     CTL2    -0.180000       12.0110           0
     18492 MEMB     158      OSM      H16F     HAL2     0.900000E-01   1.00800           0
     18493 MEMB     158      OSM      H16G     HAL2     0.900000E-01   1.00800           0
     18494 MEMB     158      OSM      C17F     CTL2    -0.180000       12.0110           0
     18495 MEMB     158      OSM      H17F     HAL2     0.900000E-01   1.00800           0
     18496 MEMB     158      OSM      H17G     HAL2     0.900000E-01   1.00800           0
     18497 MEMB     158      OSM      C18F     CTL3    -0.270000       12.0110           0
     18498 MEMB     158      OSM      H18F     HAL3     0.900000E-01   1.00800           0
     18499 MEMB     158      OSM      H18G     HAL3     0.900000E-01   1.00800           0
     18500 MEMB     158      OSM      H18H     HAL3     0.900000E-01   1.00800           0
     18501 MEMB     159      OSM      N        NTL     -0.600000       14.0070           0
     18502 MEMB     159      OSM      C15      CTL5    -0.350000       12.0110           0
     18503 MEMB     159      OSM      H15A     HL       0.250000       1.00800           0
     18504 MEMB     159      OSM      H15B     HL       0.250000       1.00800           0
     18505 MEMB     159      OSM      H15C     HL       0.250000       1.00800           0
     18506 MEMB     159      OSM      C14      CTL5    -0.350000       12.0110           0
     18507 MEMB     159      OSM      H14A     HL       0.250000       1.00800           0
     18508 MEMB     159      OSM      H14B     HL       0.250000       1.00800           0
     18509 MEMB     159      OSM      H14C     HL       0.250000       1.00800           0
     18510 MEMB     159      OSM      C13      CTL5    -0.350000       12.0110           0
     18511 MEMB     159      OSM      H13A     HL       0.250000       1.00800           0
     18512 MEMB     159      OSM      H13B     HL       0.250000       1.00800           0
     18513 MEMB     159      OSM      H13C     HL       0.250000       1.00800           0
     18514 MEMB     159      OSM      C12      CTL2    -0.100000       12.0110           0
     18515 MEMB     159      OSM      H12A     HL       0.250000       1.00800           0
     18516 MEMB     159      OSM      H12B     HL       0.250000       1.00800           0
     18517 MEMB     159      OSM      C11      CTL2    -0.800000E-01   12.0110           0
     18518 MEMB     159      OSM      H11A     HAL2     0.900000E-01   1.00800           0
     18519 MEMB     159      OSM      H11B     HAL2     0.900000E-01   1.00800           0
     18520 MEMB     159      OSM      P        PL        1.50000       30.9740           0
     18521 MEMB     159      OSM      O13      O2L     -0.780000       15.9994           0
     18522 MEMB     159      OSM      O14      O2L     -0.780000       15.9994           0
     18523 MEMB     159      OSM      O11      OSLP    -0.570000       15.9994           0
     18524 MEMB     159      OSM      O12      OSLP    -0.570000       15.9994           0
     18525 MEMB     159      OSM      C1S      CTL2    -0.800000E-01   12.0110           0
     18526 MEMB     159      OSM      H1S      HAL2     0.900000E-01   1.00800           0
     18527 MEMB     159      OSM      H1T      HAL2     0.900000E-01   1.00800           0
     18528 MEMB     159      OSM      NF       NHL     -0.700000       14.0070           0
     18529 MEMB     159      OSM      HNF      H        0.350000       1.00800           0
     18530 MEMB     159      OSM      C2S      CTL1     0.300000       12.0110           0
     18531 MEMB     159      OSM      H2S      HAL1     0.500000E-01   1.00800           0
     18532 MEMB     159      OSM      C3S      CTO1     0.500000       12.0110           0
     18533 MEMB     159      OSM      H3S      HAL1    -0.110000       1.00800           0
     18534 MEMB     159      OSM      O3       OHL     -0.690000       15.9994           0
     18535 MEMB     159      OSM      HO3      HOL      0.300000       1.00800           0
     18536 MEMB     159      OSM      C4S      CEL3    -0.150000       12.0110           0
     18537 MEMB     159      OSM      H4S      HEL1     0.150000       1.00800           0
     18538 MEMB     159      OSM      C5S      CEL3    -0.150000       12.0110           0
     18539 MEMB     159      OSM      H5S      HEL1     0.150000       1.00800           0
     18540 MEMB     159      OSM      C6S      CTL2    -0.180000       12.0110           0
     18541 MEMB     159      OSM      H6S      HAL2     0.900000E-01   1.00800           0
     18542 MEMB     159      OSM      H6T      HAL2     0.900000E-01   1.00800           0
     18543 MEMB     159      OSM      C7S      CTL2    -0.180000       12.0110           0
     18544 MEMB     159      OSM      H7S      HAL2     0.900000E-01   1.00800           0
     18545 MEMB     159      OSM      H7T      HAL2     0.900000E-01   1.00800           0
     18546 MEMB     159      OSM      C8S      CTL2    -0.180000       12.0110           0
     18547 MEMB     159      OSM      H8S      HAL2     0.900000E-01   1.00800           0
     18548 MEMB     159      OSM      H8T      HAL2     0.900000E-01   1.00800           0
     18549 MEMB     159      OSM      C9S      CTL2    -0.180000       12.0110           0
     18550 MEMB     159      OSM      H9S      HAL2     0.900000E-01   1.00800           0
     18551 MEMB     159      OSM      H9T      HAL2     0.900000E-01   1.00800           0
     18552 MEMB     159      OSM      C10S     CTL2    -0.180000       12.0110           0
     18553 MEMB     159      OSM      H10S     HAL2     0.900000E-01   1.00800           0
     18554 MEMB     159      OSM      H10T     HAL2     0.900000E-01   1.00800           0
     18555 MEMB     159      OSM      C11S     CTL2    -0.180000       12.0110           0
     18556 MEMB     159      OSM      H11S     HAL2     0.900000E-01   1.00800           0
     18557 MEMB     159      OSM      H11T     HAL2     0.900000E-01   1.00800           0
     18558 MEMB     159      OSM      C12S     CTL2    -0.180000       12.0110           0
     18559 MEMB     159      OSM      H12S     HAL2     0.900000E-01   1.00800           0
     18560 MEMB     159      OSM      H12T     HAL2     0.900000E-01   1.00800           0
     18561 MEMB     159      OSM      C13S     CTL2    -0.180000       12.0110           0
     18562 MEMB     159      OSM      H13S     HAL2     0.900000E-01   1.00800           0
     18563 MEMB     159      OSM      H13T     HAL2     0.900000E-01   1.00800           0
     18564 MEMB     159      OSM      C14S     CTL2    -0.180000       12.0110           0
     18565 MEMB     159      OSM      H14S     HAL2     0.900000E-01   1.00800           0
     18566 MEMB     159      OSM      H14T     HAL2     0.900000E-01   1.00800           0
     18567 MEMB     159      OSM      C15S     CTL2    -0.180000       12.0110           0
     18568 MEMB     159      OSM      H15S     HAL2     0.900000E-01   1.00800           0
     18569 MEMB     159      OSM      H15T     HAL2     0.900000E-01   1.00800           0
     18570 MEMB     159      OSM      C16S     CTL2    -0.180000       12.0110           0
     18571 MEMB     159      OSM      H16S     HAL2     0.900000E-01   1.00800           0
     18572 MEMB     159      OSM      H16T     HAL2     0.900000E-01   1.00800           0
     18573 MEMB     159      OSM      C17S     CTL2    -0.180000       12.0110           0
     18574 MEMB     159      OSM      H17S     HAL2     0.900000E-01   1.00800           0
     18575 MEMB     159      OSM      H17T     HAL2     0.900000E-01   1.00800           0
     18576 MEMB     159      OSM      C18S     CTL3    -0.270000       12.0110           0
     18577 MEMB     159      OSM      H18S     HAL3     0.900000E-01   1.00800           0
     18578 MEMB     159      OSM      H18T     HAL3     0.900000E-01   1.00800           0
     18579 MEMB     159      OSM      H18U     HAL3     0.900000E-01   1.00800           0
     18580 MEMB     159      OSM      C1F      C        0.550000       12.0110           0
     18581 MEMB     159      OSM      OF       O       -0.600000       15.9994           0
     18582 MEMB     159      OSM      C2F      CTL2    -0.700000E-01   12.0110           0
     18583 MEMB     159      OSM      H2F      HAL2     0.600000E-01   1.00800           0
     18584 MEMB     159      OSM      H2G      HAL2     0.600000E-01   1.00800           0
     18585 MEMB     159      OSM      C3F      CTL2    -0.180000       12.0110           0
     18586 MEMB     159      OSM      H3F      HAL2     0.900000E-01   1.00800           0
     18587 MEMB     159      OSM      H3G      HAL2     0.900000E-01   1.00800           0
     18588 MEMB     159      OSM      C4F      CTL2    -0.180000       12.0110           0
     18589 MEMB     159      OSM      H4F      HAL2     0.900000E-01   1.00800           0
     18590 MEMB     159      OSM      H4G      HAL2     0.900000E-01   1.00800           0
     18591 MEMB     159      OSM      C5F      CTL2    -0.180000       12.0110           0
     18592 MEMB     159      OSM      H5F      HAL2     0.900000E-01   1.00800           0
     18593 MEMB     159      OSM      H5G      HAL2     0.900000E-01   1.00800           0
     18594 MEMB     159      OSM      C6F      CTL2    -0.180000       12.0110           0
     18595 MEMB     159      OSM      H6F      HAL2     0.900000E-01   1.00800           0
     18596 MEMB     159      OSM      H6G      HAL2     0.900000E-01   1.00800           0
     18597 MEMB     159      OSM      C7F      CTL2    -0.180000       12.0110           0
     18598 MEMB     159      OSM      H7F      HAL2     0.900000E-01   1.00800           0
     18599 MEMB     159      OSM      H7G      HAL2     0.900000E-01   1.00800           0
     18600 MEMB     159      OSM      C8F      CTL2    -0.180000       12.0110           0
     18601 MEMB     159      OSM      H8F      HAL2     0.900000E-01   1.00800           0
     18602 MEMB     159      OSM      H8G      HAL2     0.900000E-01   1.00800           0
     18603 MEMB     159      OSM      C9F      CEL1    -0.150000       12.0110           0
     18604 MEMB     159      OSM      H9F      HEL1     0.150000       1.00800           0
     18605 MEMB     159      OSM      C10F     CEL1    -0.150000       12.0110           0
     18606 MEMB     159      OSM      H10F     HEL1     0.150000       1.00800           0
     18607 MEMB     159      OSM      C11F     CTL2    -0.180000       12.0110           0
     18608 MEMB     159      OSM      H11F     HAL2     0.900000E-01   1.00800           0
     18609 MEMB     159      OSM      H11G     HAL2     0.900000E-01   1.00800           0
     18610 MEMB     159      OSM      C12F     CTL2    -0.180000       12.0110           0
     18611 MEMB     159      OSM      H12F     HAL2     0.900000E-01   1.00800           0
     18612 MEMB     159      OSM      H12G     HAL2     0.900000E-01   1.00800           0
     18613 MEMB     159      OSM      C13F     CTL2    -0.180000       12.0110           0
     18614 MEMB     159      OSM      H13F     HAL2     0.900000E-01   1.00800           0
     18615 MEMB     159      OSM      H13G     HAL2     0.900000E-01   1.00800           0
     18616 MEMB     159      OSM      C14F     CTL2    -0.180000       12.0110           0
     18617 MEMB     159      OSM      H14F     HAL2     0.900000E-01   1.00800           0
     18618 MEMB     159      OSM      H14G     HAL2     0.900000E-01   1.00800           0
     18619 MEMB     159      OSM      C15F     CTL2    -0.180000       12.0110           0
     18620 MEMB     159      OSM      H15F     HAL2     0.900000E-01   1.00800           0
     18621 MEMB     159      OSM      H15G     HAL2     0.900000E-01   1.00800           0
     18622 MEMB     159      OSM      C16F     CTL2    -0.180000       12.0110           0
     18623 MEMB     159      OSM      H16F     HAL2     0.900000E-01   1.00800           0
     18624 MEMB     159      OSM      H16G     HAL2     0.900000E-01   1.00800           0
     18625 MEMB     159      OSM      C17F     CTL2    -0.180000       12.0110           0
     18626 MEMB     159      OSM      H17F     HAL2     0.900000E-01   1.00800           0
     18627 MEMB     159      OSM      H17G     HAL2     0.900000E-01   1.00800           0
     18628 MEMB     159      OSM      C18F     CTL3    -0.270000       12.0110           0
     18629 MEMB     159      OSM      H18F     HAL3     0.900000E-01   1.00800           0
     18630 MEMB     159      OSM      H18G     HAL3     0.900000E-01   1.00800           0
     18631 MEMB     159      OSM      H18H     HAL3     0.900000E-01   1.00800           0
     18632 MEMB     160      CHL1     C3       CRL1     0.140000       12.0110           0
     18633 MEMB     160      CHL1     H3       HGA1     0.900000E-01   1.00800           0
     18634 MEMB     160      CHL1     O3       OHL     -0.660000       15.9994           0
     18635 MEMB     160      CHL1     H3'      HOL      0.430000       1.00800           0
     18636 MEMB     160      CHL1     C4       CRL2    -0.180000       12.0110           0
     18637 MEMB     160      CHL1     H4A      HGA2     0.900000E-01   1.00800           0
     18638 MEMB     160      CHL1     H4B      HGA2     0.900000E-01   1.00800           0
     18639 MEMB     160      CHL1     C5       CEL1      0.00000       12.0110           0
     18640 MEMB     160      CHL1     C6       CEL1    -0.150000       12.0110           0
     18641 MEMB     160      CHL1     H6       HEL1     0.150000       1.00800           0
     18642 MEMB     160      CHL1     C7       CRL2    -0.180000       12.0110           0
     18643 MEMB     160      CHL1     H7A      HGA2     0.900000E-01   1.00800           0
     18644 MEMB     160      CHL1     H7B      HGA2     0.900000E-01   1.00800           0
     18645 MEMB     160      CHL1     C8       CRL1    -0.900000E-01   12.0110           0
     18646 MEMB     160      CHL1     H8       HGA1     0.900000E-01   1.00800           0
     18647 MEMB     160      CHL1     C14      CRL1    -0.900000E-01   12.0110           0
     18648 MEMB     160      CHL1     H14      HGA1     0.900000E-01   1.00800           0
     18649 MEMB     160      CHL1     C15      CRL2    -0.180000       12.0110           0
     18650 MEMB     160      CHL1     H15A     HGA2     0.900000E-01   1.00800           0
     18651 MEMB     160      CHL1     H15B     HGA2     0.900000E-01   1.00800           0
     18652 MEMB     160      CHL1     C16      CRL2    -0.180000       12.0110           0
     18653 MEMB     160      CHL1     H16A     HGA2     0.900000E-01   1.00800           0
     18654 MEMB     160      CHL1     H16B     HGA2     0.900000E-01   1.00800           0
     18655 MEMB     160      CHL1     C17      CRL1    -0.900000E-01   12.0110           0
     18656 MEMB     160      CHL1     H17      HGA1     0.900000E-01   1.00800           0
     18657 MEMB     160      CHL1     C13      CRL1      0.00000       12.0110           0
     18658 MEMB     160      CHL1     C18      CTL3    -0.270000       12.0110           0
     18659 MEMB     160      CHL1     H18A     HAL3     0.900000E-01   1.00800           0
     18660 MEMB     160      CHL1     H18B     HAL3     0.900000E-01   1.00800           0
     18661 MEMB     160      CHL1     H18C     HAL3     0.900000E-01   1.00800           0
     18662 MEMB     160      CHL1     C12      CRL2    -0.180000       12.0110           0
     18663 MEMB     160      CHL1     H12A     HGA2     0.900000E-01   1.00800           0
     18664 MEMB     160      CHL1     H12B     HGA2     0.900000E-01   1.00800           0
     18665 MEMB     160      CHL1     C11      CRL2    -0.180000       12.0110           0
     18666 MEMB     160      CHL1     H11A     HGA2     0.900000E-01   1.00800           0
     18667 MEMB     160      CHL1     H11B     HGA2     0.900000E-01   1.00800           0
     18668 MEMB     160      CHL1     C9       CRL1    -0.900000E-01   12.0110           0
     18669 MEMB     160      CHL1     H9       HGA1     0.900000E-01   1.00800           0
     18670 MEMB     160      CHL1     C10      CRL1      0.00000       12.0110           0
     18671 MEMB     160      CHL1     C19      CTL3    -0.270000       12.0110           0
     18672 MEMB     160      CHL1     H19A     HAL3     0.900000E-01   1.00800           0
     18673 MEMB     160      CHL1     H19B     HAL3     0.900000E-01   1.00800           0
     18674 MEMB     160      CHL1     H19C     HAL3     0.900000E-01   1.00800           0
     18675 MEMB     160      CHL1     C1       CRL2    -0.180000       12.0110           0
     18676 MEMB     160      CHL1     H1A      HGA2     0.900000E-01   1.00800           0
     18677 MEMB     160      CHL1     H1B      HGA2     0.900000E-01   1.00800           0
     18678 MEMB     160      CHL1     C2       CRL2    -0.180000       12.0110           0
     18679 MEMB     160      CHL1     H2A      HGA2     0.900000E-01   1.00800           0
     18680 MEMB     160      CHL1     H2B      HGA2     0.900000E-01   1.00800           0
     18681 MEMB     160      CHL1     C20      CTL1    -0.900000E-01   12.0110           0
     18682 MEMB     160      CHL1     H20      HAL1     0.900000E-01   1.00800           0
     18683 MEMB     160      CHL1     C21      CTL3    -0.270000       12.0110           0
     18684 MEMB     160      CHL1     H21A     HAL3     0.900000E-01   1.00800           0
     18685 MEMB     160      CHL1     H21B     HAL3     0.900000E-01   1.00800           0
     18686 MEMB     160      CHL1     H21C     HAL3     0.900000E-01   1.00800           0
     18687 MEMB     160      CHL1     C22      CTL2    -0.180000       12.0110           0
     18688 MEMB     160      CHL1     H22A     HAL2     0.900000E-01   1.00800           0
     18689 MEMB     160      CHL1     H22B     HAL2     0.900000E-01   1.00800           0
     18690 MEMB     160      CHL1     C23      CTL2    -0.180000       12.0110           0
     18691 MEMB     160      CHL1     H23A     HAL2     0.900000E-01   1.00800           0
     18692 MEMB     160      CHL1     H23B     HAL2     0.900000E-01   1.00800           0
     18693 MEMB     160      CHL1     C24      CTL2    -0.180000       12.0110           0
     18694 MEMB     160      CHL1     H24A     HAL2     0.900000E-01   1.00800           0
     18695 MEMB     160      CHL1     H24B     HAL2     0.900000E-01   1.00800           0
     18696 MEMB     160      CHL1     C25      CTL1    -0.900000E-01   12.0110           0
     18697 MEMB     160      CHL1     H25      HAL1     0.900000E-01   1.00800           0
     18698 MEMB     160      CHL1     C26      CTL3    -0.270000       12.0110           0
     18699 MEMB     160      CHL1     H26A     HAL3     0.900000E-01   1.00800           0
     18700 MEMB     160      CHL1     H26B     HAL3     0.900000E-01   1.00800           0
     18701 MEMB     160      CHL1     H26C     HAL3     0.900000E-01   1.00800           0
     18702 MEMB     160      CHL1     C27      CTL3    -0.270000       12.0110           0
     18703 MEMB     160      CHL1     H27A     HAL3     0.900000E-01   1.00800           0
     18704 MEMB     160      CHL1     H27B     HAL3     0.900000E-01   1.00800           0
     18705 MEMB     160      CHL1     H27C     HAL3     0.900000E-01   1.00800           0
     18706 MEMB     161      SAPE     N        NH3L    -0.300000       14.0070           0
     18707 MEMB     161      SAPE     HN1      HCL      0.330000       1.00800           0
     18708 MEMB     161      SAPE     HN2      HCL      0.330000       1.00800           0
     18709 MEMB     161      SAPE     HN3      HCL      0.330000       1.00800           0
     18710 MEMB     161      SAPE     C12      CTL2     0.130000       12.0110           0
     18711 MEMB     161      SAPE     H12A     HAL2     0.900000E-01   1.00800           0
     18712 MEMB     161      SAPE     H12B     HAL2     0.900000E-01   1.00800           0
     18713 MEMB     161      SAPE     C11      CTL2    -0.800000E-01   12.0110           0
     18714 MEMB     161      SAPE     H11A     HAL2     0.900000E-01   1.00800           0
     18715 MEMB     161      SAPE     H11B     HAL2     0.900000E-01   1.00800           0
     18716 MEMB     161      SAPE     P        PL        1.50000       30.9740           0
     18717 MEMB     161      SAPE     O13      O2L     -0.780000       15.9994           0
     18718 MEMB     161      SAPE     O14      O2L     -0.780000       15.9994           0
     18719 MEMB     161      SAPE     O12      OSLP    -0.570000       15.9994           0
     18720 MEMB     161      SAPE     O11      OSLP    -0.570000       15.9994           0
     18721 MEMB     161      SAPE     C1       CTL2    -0.800000E-01   12.0110           0
     18722 MEMB     161      SAPE     HA       HAL2     0.900000E-01   1.00800           0
     18723 MEMB     161      SAPE     HB       HAL2     0.900000E-01   1.00800           0
     18724 MEMB     161      SAPE     C2       CTL1     0.170000       12.0110           0
     18725 MEMB     161      SAPE     HS       HAL1     0.900000E-01   1.00800           0
     18726 MEMB     161      SAPE     O21      OSL     -0.490000       15.9994           0
     18727 MEMB     161      SAPE     C21      CL       0.900000       12.0110           0
     18728 MEMB     161      SAPE     O22      OBL     -0.630000       15.9994           0
     18729 MEMB     161      SAPE     C22      CTL2    -0.220000       12.0110           0
     18730 MEMB     161      SAPE     H2R      HAL2     0.900000E-01   1.00800           0
     18731 MEMB     161      SAPE     H2S      HAL2     0.900000E-01   1.00800           0
     18732 MEMB     161      SAPE     C3       CTL2     0.800000E-01   12.0110           0
     18733 MEMB     161      SAPE     HX       HAL2     0.900000E-01   1.00800           0
     18734 MEMB     161      SAPE     HY       HAL2     0.900000E-01   1.00800           0
     18735 MEMB     161      SAPE     O31      OSL     -0.490000       15.9994           0
     18736 MEMB     161      SAPE     C31      CL       0.900000       12.0110           0
     18737 MEMB     161      SAPE     O32      OBL     -0.630000       15.9994           0
     18738 MEMB     161      SAPE     C32      CTL2    -0.220000       12.0110           0
     18739 MEMB     161      SAPE     H2X      HAL2     0.900000E-01   1.00800           0
     18740 MEMB     161      SAPE     H2Y      HAL2     0.900000E-01   1.00800           0
     18741 MEMB     161      SAPE     C23      CTL2    -0.180000       12.0110           0
     18742 MEMB     161      SAPE     H3R      HAL2     0.900000E-01   1.00800           0
     18743 MEMB     161      SAPE     H3S      HAL2     0.900000E-01   1.00800           0
     18744 MEMB     161      SAPE     C24      CTL2    -0.180000       12.0110           0
     18745 MEMB     161      SAPE     H4R      HAL2     0.900000E-01   1.00800           0
     18746 MEMB     161      SAPE     H4S      HAL2     0.900000E-01   1.00800           0
     18747 MEMB     161      SAPE     C25      CEL1    -0.150000       12.0110           0
     18748 MEMB     161      SAPE     H5R      HEL1     0.150000       1.00800           0
     18749 MEMB     161      SAPE     C26      CEL1    -0.150000       12.0110           0
     18750 MEMB     161      SAPE     H6R      HEL1     0.150000       1.00800           0
     18751 MEMB     161      SAPE     C27      CTL2    -0.180000       12.0110           0
     18752 MEMB     161      SAPE     H7R      HAL2     0.900000E-01   1.00800           0
     18753 MEMB     161      SAPE     H7S      HAL2     0.900000E-01   1.00800           0
     18754 MEMB     161      SAPE     C28      CEL1    -0.150000       12.0110           0
     18755 MEMB     161      SAPE     H8R      HEL1     0.150000       1.00800           0
     18756 MEMB     161      SAPE     C29      CEL1    -0.150000       12.0110           0
     18757 MEMB     161      SAPE     H9R      HEL1     0.150000       1.00800           0
     18758 MEMB     161      SAPE     C210     CTL2    -0.180000       12.0110           0
     18759 MEMB     161      SAPE     H10R     HAL2     0.900000E-01   1.00800           0
     18760 MEMB     161      SAPE     H10S     HAL2     0.900000E-01   1.00800           0
     18761 MEMB     161      SAPE     C211     CEL1    -0.150000       12.0110           0
     18762 MEMB     161      SAPE     H11R     HEL1     0.150000       1.00800           0
     18763 MEMB     161      SAPE     C212     CEL1    -0.150000       12.0110           0
     18764 MEMB     161      SAPE     H12R     HEL1     0.150000       1.00800           0
     18765 MEMB     161      SAPE     C213     CTL2    -0.180000       12.0110           0
     18766 MEMB     161      SAPE     H13R     HAL2     0.900000E-01   1.00800           0
     18767 MEMB     161      SAPE     H13S     HAL2     0.900000E-01   1.00800           0
     18768 MEMB     161      SAPE     C214     CEL1    -0.150000       12.0110           0
     18769 MEMB     161      SAPE     H14R     HEL1     0.150000       1.00800           0
     18770 MEMB     161      SAPE     C215     CEL1    -0.150000       12.0110           0
     18771 MEMB     161      SAPE     H15R     HEL1     0.150000       1.00800           0
     18772 MEMB     161      SAPE     C216     CTL2    -0.180000       12.0110           0
     18773 MEMB     161      SAPE     H16R     HAL2     0.900000E-01   1.00800           0
     18774 MEMB     161      SAPE     H16S     HAL2     0.900000E-01   1.00800           0
     18775 MEMB     161      SAPE     C217     CTL2    -0.180000       12.0110           0
     18776 MEMB     161      SAPE     H17R     HAL2     0.900000E-01   1.00800           0
     18777 MEMB     161      SAPE     H17S     HAL2     0.900000E-01   1.00800           0
     18778 MEMB     161      SAPE     C218     CTL2    -0.180000       12.0110           0
     18779 MEMB     161      SAPE     H18R     HAL2     0.900000E-01   1.00800           0
     18780 MEMB     161      SAPE     H18S     HAL2     0.900000E-01   1.00800           0
     18781 MEMB     161      SAPE     C219     CTL2    -0.180000       12.0110           0
     18782 MEMB     161      SAPE     H19R     HAL2     0.900000E-01   1.00800           0
     18783 MEMB     161      SAPE     H19S     HAL2     0.900000E-01   1.00800           0
     18784 MEMB     161      SAPE     C220     CTL3    -0.270000       12.0110           0
     18785 MEMB     161      SAPE     H20R     HAL3     0.900000E-01   1.00800           0
     18786 MEMB     161      SAPE     H20S     HAL3     0.900000E-01   1.00800           0
     18787 MEMB     161      SAPE     H20T     HAL3     0.900000E-01   1.00800           0
     18788 MEMB     161      SAPE     C33      CTL2    -0.180000       12.0110           0
     18789 MEMB     161      SAPE     H3X      HAL2     0.900000E-01   1.00800           0
     18790 MEMB     161      SAPE     H3Y      HAL2     0.900000E-01   1.00800           0
     18791 MEMB     161      SAPE     C34      CTL2    -0.180000       12.0110           0
     18792 MEMB     161      SAPE     H4X      HAL2     0.900000E-01   1.00800           0
     18793 MEMB     161      SAPE     H4Y      HAL2     0.900000E-01   1.00800           0
     18794 MEMB     161      SAPE     C35      CTL2    -0.180000       12.0110           0
     18795 MEMB     161      SAPE     H5X      HAL2     0.900000E-01   1.00800           0
     18796 MEMB     161      SAPE     H5Y      HAL2     0.900000E-01   1.00800           0
     18797 MEMB     161      SAPE     C36      CTL2    -0.180000       12.0110           0
     18798 MEMB     161      SAPE     H6X      HAL2     0.900000E-01   1.00800           0
     18799 MEMB     161      SAPE     H6Y      HAL2     0.900000E-01   1.00800           0
     18800 MEMB     161      SAPE     C37      CTL2    -0.180000       12.0110           0
     18801 MEMB     161      SAPE     H7X      HAL2     0.900000E-01   1.00800           0
     18802 MEMB     161      SAPE     H7Y      HAL2     0.900000E-01   1.00800           0
     18803 MEMB     161      SAPE     C38      CTL2    -0.180000       12.0110           0
     18804 MEMB     161      SAPE     H8X      HAL2     0.900000E-01   1.00800           0
     18805 MEMB     161      SAPE     H8Y      HAL2     0.900000E-01   1.00800           0
     18806 MEMB     161      SAPE     C39      CTL2    -0.180000       12.0110           0
     18807 MEMB     161      SAPE     H9X      HAL2     0.900000E-01   1.00800           0
     18808 MEMB     161      SAPE     H9Y      HAL2     0.900000E-01   1.00800           0
     18809 MEMB     161      SAPE     C310     CTL2    -0.180000       12.0110           0
     18810 MEMB     161      SAPE     H10X     HAL2     0.900000E-01   1.00800           0
     18811 MEMB     161      SAPE     H10Y     HAL2     0.900000E-01   1.00800           0
     18812 MEMB     161      SAPE     C311     CTL2    -0.180000       12.0110           0
     18813 MEMB     161      SAPE     H11X     HAL2     0.900000E-01   1.00800           0
     18814 MEMB     161      SAPE     H11Y     HAL2     0.900000E-01   1.00800           0
     18815 MEMB     161      SAPE     C312     CTL2    -0.180000       12.0110           0
     18816 MEMB     161      SAPE     H12X     HAL2     0.900000E-01   1.00800           0
     18817 MEMB     161      SAPE     H12Y     HAL2     0.900000E-01   1.00800           0
     18818 MEMB     161      SAPE     C313     CTL2    -0.180000       12.0110           0
     18819 MEMB     161      SAPE     H13X     HAL2     0.900000E-01   1.00800           0
     18820 MEMB     161      SAPE     H13Y     HAL2     0.900000E-01   1.00800           0
     18821 MEMB     161      SAPE     C314     CTL2    -0.180000       12.0110           0
     18822 MEMB     161      SAPE     H14X     HAL2     0.900000E-01   1.00800           0
     18823 MEMB     161      SAPE     H14Y     HAL2     0.900000E-01   1.00800           0
     18824 MEMB     161      SAPE     C315     CTL2    -0.180000       12.0110           0
     18825 MEMB     161      SAPE     H15X     HAL2     0.900000E-01   1.00800           0
     18826 MEMB     161      SAPE     H15Y     HAL2     0.900000E-01   1.00800           0
     18827 MEMB     161      SAPE     C316     CTL2    -0.180000       12.0110           0
     18828 MEMB     161      SAPE     H16X     HAL2     0.900000E-01   1.00800           0
     18829 MEMB     161      SAPE     H16Y     HAL2     0.900000E-01   1.00800           0
     18830 MEMB     161      SAPE     C317     CTL2    -0.180000       12.0110           0
     18831 MEMB     161      SAPE     H17X     HAL2     0.900000E-01   1.00800           0
     18832 MEMB     161      SAPE     H17Y     HAL2     0.900000E-01   1.00800           0
     18833 MEMB     161      SAPE     C318     CTL3    -0.270000       12.0110           0
     18834 MEMB     161      SAPE     H18X     HAL3     0.900000E-01   1.00800           0
     18835 MEMB     161      SAPE     H18Y     HAL3     0.900000E-01   1.00800           0
     18836 MEMB     161      SAPE     H18Z     HAL3     0.900000E-01   1.00800           0
     18837 MEMB     162      CHL1     C3       CRL1     0.140000       12.0110           0
     18838 MEMB     162      CHL1     H3       HGA1     0.900000E-01   1.00800           0
     18839 MEMB     162      CHL1     O3       OHL     -0.660000       15.9994           0
     18840 MEMB     162      CHL1     H3'      HOL      0.430000       1.00800           0
     18841 MEMB     162      CHL1     C4       CRL2    -0.180000       12.0110           0
     18842 MEMB     162      CHL1     H4A      HGA2     0.900000E-01   1.00800           0
     18843 MEMB     162      CHL1     H4B      HGA2     0.900000E-01   1.00800           0
     18844 MEMB     162      CHL1     C5       CEL1      0.00000       12.0110           0
     18845 MEMB     162      CHL1     C6       CEL1    -0.150000       12.0110           0
     18846 MEMB     162      CHL1     H6       HEL1     0.150000       1.00800           0
     18847 MEMB     162      CHL1     C7       CRL2    -0.180000       12.0110           0
     18848 MEMB     162      CHL1     H7A      HGA2     0.900000E-01   1.00800           0
     18849 MEMB     162      CHL1     H7B      HGA2     0.900000E-01   1.00800           0
     18850 MEMB     162      CHL1     C8       CRL1    -0.900000E-01   12.0110           0
     18851 MEMB     162      CHL1     H8       HGA1     0.900000E-01   1.00800           0
     18852 MEMB     162      CHL1     C14      CRL1    -0.900000E-01   12.0110           0
     18853 MEMB     162      CHL1     H14      HGA1     0.900000E-01   1.00800           0
     18854 MEMB     162      CHL1     C15      CRL2    -0.180000       12.0110           0
     18855 MEMB     162      CHL1     H15A     HGA2     0.900000E-01   1.00800           0
     18856 MEMB     162      CHL1     H15B     HGA2     0.900000E-01   1.00800           0
     18857 MEMB     162      CHL1     C16      CRL2    -0.180000       12.0110           0
     18858 MEMB     162      CHL1     H16A     HGA2     0.900000E-01   1.00800           0
     18859 MEMB     162      CHL1     H16B     HGA2     0.900000E-01   1.00800           0
     18860 MEMB     162      CHL1     C17      CRL1    -0.900000E-01   12.0110           0
     18861 MEMB     162      CHL1     H17      HGA1     0.900000E-01   1.00800           0
     18862 MEMB     162      CHL1     C13      CRL1      0.00000       12.0110           0
     18863 MEMB     162      CHL1     C18      CTL3    -0.270000       12.0110           0
     18864 MEMB     162      CHL1     H18A     HAL3     0.900000E-01   1.00800           0
     18865 MEMB     162      CHL1     H18B     HAL3     0.900000E-01   1.00800           0
     18866 MEMB     162      CHL1     H18C     HAL3     0.900000E-01   1.00800           0
     18867 MEMB     162      CHL1     C12      CRL2    -0.180000       12.0110           0
     18868 MEMB     162      CHL1     H12A     HGA2     0.900000E-01   1.00800           0
     18869 MEMB     162      CHL1     H12B     HGA2     0.900000E-01   1.00800           0
     18870 MEMB     162      CHL1     C11      CRL2    -0.180000       12.0110           0
     18871 MEMB     162      CHL1     H11A     HGA2     0.900000E-01   1.00800           0
     18872 MEMB     162      CHL1     H11B     HGA2     0.900000E-01   1.00800           0
     18873 MEMB     162      CHL1     C9       CRL1    -0.900000E-01   12.0110           0
     18874 MEMB     162      CHL1     H9       HGA1     0.900000E-01   1.00800           0
     18875 MEMB     162      CHL1     C10      CRL1      0.00000       12.0110           0
     18876 MEMB     162      CHL1     C19      CTL3    -0.270000       12.0110           0
     18877 MEMB     162      CHL1     H19A     HAL3     0.900000E-01   1.00800           0
     18878 MEMB     162      CHL1     H19B     HAL3     0.900000E-01   1.00800           0
     18879 MEMB     162      CHL1     H19C     HAL3     0.900000E-01   1.00800           0
     18880 MEMB     162      CHL1     C1       CRL2    -0.180000       12.0110           0
     18881 MEMB     162      CHL1     H1A      HGA2     0.900000E-01   1.00800           0
     18882 MEMB     162      CHL1     H1B      HGA2     0.900000E-01   1.00800           0
     18883 MEMB     162      CHL1     C2       CRL2    -0.180000       12.0110           0
     18884 MEMB     162      CHL1     H2A      HGA2     0.900000E-01   1.00800           0
     18885 MEMB     162      CHL1     H2B      HGA2     0.900000E-01   1.00800           0
     18886 MEMB     162      CHL1     C20      CTL1    -0.900000E-01   12.0110           0
     18887 MEMB     162      CHL1     H20      HAL1     0.900000E-01   1.00800           0
     18888 MEMB     162      CHL1     C21      CTL3    -0.270000       12.0110           0
     18889 MEMB     162      CHL1     H21A     HAL3     0.900000E-01   1.00800           0
     18890 MEMB     162      CHL1     H21B     HAL3     0.900000E-01   1.00800           0
     18891 MEMB     162      CHL1     H21C     HAL3     0.900000E-01   1.00800           0
     18892 MEMB     162      CHL1     C22      CTL2    -0.180000       12.0110           0
     18893 MEMB     162      CHL1     H22A     HAL2     0.900000E-01   1.00800           0
     18894 MEMB     162      CHL1     H22B     HAL2     0.900000E-01   1.00800           0
     18895 MEMB     162      CHL1     C23      CTL2    -0.180000       12.0110           0
     18896 MEMB     162      CHL1     H23A     HAL2     0.900000E-01   1.00800           0
     18897 MEMB     162      CHL1     H23B     HAL2     0.900000E-01   1.00800           0
     18898 MEMB     162      CHL1     C24      CTL2    -0.180000       12.0110           0
     18899 MEMB     162      CHL1     H24A     HAL2     0.900000E-01   1.00800           0
     18900 MEMB     162      CHL1     H24B     HAL2     0.900000E-01   1.00800           0
     18901 MEMB     162      CHL1     C25      CTL1    -0.900000E-01   12.0110           0
     18902 MEMB     162      CHL1     H25      HAL1     0.900000E-01   1.00800           0
     18903 MEMB     162      CHL1     C26      CTL3    -0.270000       12.0110           0
     18904 MEMB     162      CHL1     H26A     HAL3     0.900000E-01   1.00800           0
     18905 MEMB     162      CHL1     H26B     HAL3     0.900000E-01   1.00800           0
     18906 MEMB     162      CHL1     H26C     HAL3     0.900000E-01   1.00800           0
     18907 MEMB     162      CHL1     C27      CTL3    -0.270000       12.0110           0
     18908 MEMB     162      CHL1     H27A     HAL3     0.900000E-01   1.00800           0
     18909 MEMB     162      CHL1     H27B     HAL3     0.900000E-01   1.00800           0
     18910 MEMB     162      CHL1     H27C     HAL3     0.900000E-01   1.00800           0
     18911 MEMB     163      POPC     N        NTL     -0.600000       14.0070           0
     18912 MEMB     163      POPC     C12      CTL2    -0.100000       12.0110           0
     18913 MEMB     163      POPC     H12A     HL       0.250000       1.00800           0
     18914 MEMB     163      POPC     H12B     HL       0.250000       1.00800           0
     18915 MEMB     163      POPC     C13      CTL5    -0.350000       12.0110           0
     18916 MEMB     163      POPC     H13A     HL       0.250000       1.00800           0
     18917 MEMB     163      POPC     H13B     HL       0.250000       1.00800           0
     18918 MEMB     163      POPC     H13C     HL       0.250000       1.00800           0
     18919 MEMB     163      POPC     C14      CTL5    -0.350000       12.0110           0
     18920 MEMB     163      POPC     H14A     HL       0.250000       1.00800           0
     18921 MEMB     163      POPC     H14B     HL       0.250000       1.00800           0
     18922 MEMB     163      POPC     H14C     HL       0.250000       1.00800           0
     18923 MEMB     163      POPC     C15      CTL5    -0.350000       12.0110           0
     18924 MEMB     163      POPC     H15A     HL       0.250000       1.00800           0
     18925 MEMB     163      POPC     H15B     HL       0.250000       1.00800           0
     18926 MEMB     163      POPC     H15C     HL       0.250000       1.00800           0
     18927 MEMB     163      POPC     C11      CTL2    -0.800000E-01   12.0110           0
     18928 MEMB     163      POPC     H11A     HAL2     0.900000E-01   1.00800           0
     18929 MEMB     163      POPC     H11B     HAL2     0.900000E-01   1.00800           0
     18930 MEMB     163      POPC     P        PL        1.50000       30.9740           0
     18931 MEMB     163      POPC     O13      O2L     -0.780000       15.9994           0
     18932 MEMB     163      POPC     O14      O2L     -0.780000       15.9994           0
     18933 MEMB     163      POPC     O12      OSLP    -0.570000       15.9994           0
     18934 MEMB     163      POPC     O11      OSLP    -0.570000       15.9994           0
     18935 MEMB     163      POPC     C1       CTL2    -0.800000E-01   12.0110           0
     18936 MEMB     163      POPC     HA       HAL2     0.900000E-01   1.00800           0
     18937 MEMB     163      POPC     HB       HAL2     0.900000E-01   1.00800           0
     18938 MEMB     163      POPC     C2       CTL1     0.170000       12.0110           0
     18939 MEMB     163      POPC     HS       HAL1     0.900000E-01   1.00800           0
     18940 MEMB     163      POPC     O21      OSL     -0.490000       15.9994           0
     18941 MEMB     163      POPC     C21      CL       0.900000       12.0110           0
     18942 MEMB     163      POPC     O22      OBL     -0.630000       15.9994           0
     18943 MEMB     163      POPC     C22      CTL2    -0.220000       12.0110           0
     18944 MEMB     163      POPC     H2R      HAL2     0.900000E-01   1.00800           0
     18945 MEMB     163      POPC     H2S      HAL2     0.900000E-01   1.00800           0
     18946 MEMB     163      POPC     C3       CTL2     0.800000E-01   12.0110           0
     18947 MEMB     163      POPC     HX       HAL2     0.900000E-01   1.00800           0
     18948 MEMB     163      POPC     HY       HAL2     0.900000E-01   1.00800           0
     18949 MEMB     163      POPC     O31      OSL     -0.490000       15.9994           0
     18950 MEMB     163      POPC     C31      CL       0.900000       12.0110           0
     18951 MEMB     163      POPC     O32      OBL     -0.630000       15.9994           0
     18952 MEMB     163      POPC     C32      CTL2    -0.220000       12.0110           0
     18953 MEMB     163      POPC     H2X      HAL2     0.900000E-01   1.00800           0
     18954 MEMB     163      POPC     H2Y      HAL2     0.900000E-01   1.00800           0
     18955 MEMB     163      POPC     C23      CTL2    -0.180000       12.0110           0
     18956 MEMB     163      POPC     H3R      HAL2     0.900000E-01   1.00800           0
     18957 MEMB     163      POPC     H3S      HAL2     0.900000E-01   1.00800           0
     18958 MEMB     163      POPC     C24      CTL2    -0.180000       12.0110           0
     18959 MEMB     163      POPC     H4R      HAL2     0.900000E-01   1.00800           0
     18960 MEMB     163      POPC     H4S      HAL2     0.900000E-01   1.00800           0
     18961 MEMB     163      POPC     C25      CTL2    -0.180000       12.0110           0
     18962 MEMB     163      POPC     H5R      HAL2     0.900000E-01   1.00800           0
     18963 MEMB     163      POPC     H5S      HAL2     0.900000E-01   1.00800           0
     18964 MEMB     163      POPC     C26      CTL2    -0.180000       12.0110           0
     18965 MEMB     163      POPC     H6R      HAL2     0.900000E-01   1.00800           0
     18966 MEMB     163      POPC     H6S      HAL2     0.900000E-01   1.00800           0
     18967 MEMB     163      POPC     C27      CTL2    -0.180000       12.0110           0
     18968 MEMB     163      POPC     H7R      HAL2     0.900000E-01   1.00800           0
     18969 MEMB     163      POPC     H7S      HAL2     0.900000E-01   1.00800           0
     18970 MEMB     163      POPC     C28      CTL2    -0.180000       12.0110           0
     18971 MEMB     163      POPC     H8R      HAL2     0.900000E-01   1.00800           0
     18972 MEMB     163      POPC     H8S      HAL2     0.900000E-01   1.00800           0
     18973 MEMB     163      POPC     C29      CEL1    -0.150000       12.0110           0
     18974 MEMB     163      POPC     H91      HEL1     0.150000       1.00800           0
     18975 MEMB     163      POPC     C210     CEL1    -0.150000       12.0110           0
     18976 MEMB     163      POPC     H101     HEL1     0.150000       1.00800           0
     18977 MEMB     163      POPC     C211     CTL2    -0.180000       12.0110           0
     18978 MEMB     163      POPC     H11R     HAL2     0.900000E-01   1.00800           0
     18979 MEMB     163      POPC     H11S     HAL2     0.900000E-01   1.00800           0
     18980 MEMB     163      POPC     C212     CTL2    -0.180000       12.0110           0
     18981 MEMB     163      POPC     H12R     HAL2     0.900000E-01   1.00800           0
     18982 MEMB     163      POPC     H12S     HAL2     0.900000E-01   1.00800           0
     18983 MEMB     163      POPC     C213     CTL2    -0.180000       12.0110           0
     18984 MEMB     163      POPC     H13R     HAL2     0.900000E-01   1.00800           0
     18985 MEMB     163      POPC     H13S     HAL2     0.900000E-01   1.00800           0
     18986 MEMB     163      POPC     C214     CTL2    -0.180000       12.0110           0
     18987 MEMB     163      POPC     H14R     HAL2     0.900000E-01   1.00800           0
     18988 MEMB     163      POPC     H14S     HAL2     0.900000E-01   1.00800           0
     18989 MEMB     163      POPC     C215     CTL2    -0.180000       12.0110           0
     18990 MEMB     163      POPC     H15R     HAL2     0.900000E-01   1.00800           0
     18991 MEMB     163      POPC     H15S     HAL2     0.900000E-01   1.00800           0
     18992 MEMB     163      POPC     C216     CTL2    -0.180000       12.0110           0
     18993 MEMB     163      POPC     H16R     HAL2     0.900000E-01   1.00800           0
     18994 MEMB     163      POPC     H16S     HAL2     0.900000E-01   1.00800           0
     18995 MEMB     163      POPC     C217     CTL2    -0.180000       12.0110           0
     18996 MEMB     163      POPC     H17R     HAL2     0.900000E-01   1.00800           0
     18997 MEMB     163      POPC     H17S     HAL2     0.900000E-01   1.00800           0
     18998 MEMB     163      POPC     C218     CTL3    -0.270000       12.0110           0
     18999 MEMB     163      POPC     H18R     HAL3     0.900000E-01   1.00800           0
     19000 MEMB     163      POPC     H18S     HAL3     0.900000E-01   1.00800           0
     19001 MEMB     163      POPC     H18T     HAL3     0.900000E-01   1.00800           0
     19002 MEMB     163      POPC     C33      CTL2    -0.180000       12.0110           0
     19003 MEMB     163      POPC     H3X      HAL2     0.900000E-01   1.00800           0
     19004 MEMB     163      POPC     H3Y      HAL2     0.900000E-01   1.00800           0
     19005 MEMB     163      POPC     C34      CTL2    -0.180000       12.0110           0
     19006 MEMB     163      POPC     H4X      HAL2     0.900000E-01   1.00800           0
     19007 MEMB     163      POPC     H4Y      HAL2     0.900000E-01   1.00800           0
     19008 MEMB     163      POPC     C35      CTL2    -0.180000       12.0110           0
     19009 MEMB     163      POPC     H5X      HAL2     0.900000E-01   1.00800           0
     19010 MEMB     163      POPC     H5Y      HAL2     0.900000E-01   1.00800           0
     19011 MEMB     163      POPC     C36      CTL2    -0.180000       12.0110           0
     19012 MEMB     163      POPC     H6X      HAL2     0.900000E-01   1.00800           0
     19013 MEMB     163      POPC     H6Y      HAL2     0.900000E-01   1.00800           0
     19014 MEMB     163      POPC     C37      CTL2    -0.180000       12.0110           0
     19015 MEMB     163      POPC     H7X      HAL2     0.900000E-01   1.00800           0
     19016 MEMB     163      POPC     H7Y      HAL2     0.900000E-01   1.00800           0
     19017 MEMB     163      POPC     C38      CTL2    -0.180000       12.0110           0
     19018 MEMB     163      POPC     H8X      HAL2     0.900000E-01   1.00800           0
     19019 MEMB     163      POPC     H8Y      HAL2     0.900000E-01   1.00800           0
     19020 MEMB     163      POPC     C39      CTL2    -0.180000       12.0110           0
     19021 MEMB     163      POPC     H9X      HAL2     0.900000E-01   1.00800           0
     19022 MEMB     163      POPC     H9Y      HAL2     0.900000E-01   1.00800           0
     19023 MEMB     163      POPC     C310     CTL2    -0.180000       12.0110           0
     19024 MEMB     163      POPC     H10X     HAL2     0.900000E-01   1.00800           0
     19025 MEMB     163      POPC     H10Y     HAL2     0.900000E-01   1.00800           0
     19026 MEMB     163      POPC     C311     CTL2    -0.180000       12.0110           0
     19027 MEMB     163      POPC     H11X     HAL2     0.900000E-01   1.00800           0
     19028 MEMB     163      POPC     H11Y     HAL2     0.900000E-01   1.00800           0
     19029 MEMB     163      POPC     C312     CTL2    -0.180000       12.0110           0
     19030 MEMB     163      POPC     H12X     HAL2     0.900000E-01   1.00800           0
     19031 MEMB     163      POPC     H12Y     HAL2     0.900000E-01   1.00800           0
     19032 MEMB     163      POPC     C313     CTL2    -0.180000       12.0110           0
     19033 MEMB     163      POPC     H13X     HAL2     0.900000E-01   1.00800           0
     19034 MEMB     163      POPC     H13Y     HAL2     0.900000E-01   1.00800           0
     19035 MEMB     163      POPC     C314     CTL2    -0.180000       12.0110           0
     19036 MEMB     163      POPC     H14X     HAL2     0.900000E-01   1.00800           0
     19037 MEMB     163      POPC     H14Y     HAL2     0.900000E-01   1.00800           0
     19038 MEMB     163      POPC     C315     CTL2    -0.180000       12.0110           0
     19039 MEMB     163      POPC     H15X     HAL2     0.900000E-01   1.00800           0
     19040 MEMB     163      POPC     H15Y     HAL2     0.900000E-01   1.00800           0
     19041 MEMB     163      POPC     C316     CTL3    -0.270000       12.0110           0
     19042 MEMB     163      POPC     H16X     HAL3     0.900000E-01   1.00800           0
     19043 MEMB     163      POPC     H16Y     HAL3     0.900000E-01   1.00800           0
     19044 MEMB     163      POPC     H16Z     HAL3     0.900000E-01   1.00800           0
     19045 MEMB     164      CHL1     C3       CRL1     0.140000       12.0110           0
     19046 MEMB     164      CHL1     H3       HGA1     0.900000E-01   1.00800           0
     19047 MEMB     164      CHL1     O3       OHL     -0.660000       15.9994           0
     19048 MEMB     164      CHL1     H3'      HOL      0.430000       1.00800           0
     19049 MEMB     164      CHL1     C4       CRL2    -0.180000       12.0110           0
     19050 MEMB     164      CHL1     H4A      HGA2     0.900000E-01   1.00800           0
     19051 MEMB     164      CHL1     H4B      HGA2     0.900000E-01   1.00800           0
     19052 MEMB     164      CHL1     C5       CEL1      0.00000       12.0110           0
     19053 MEMB     164      CHL1     C6       CEL1    -0.150000       12.0110           0
     19054 MEMB     164      CHL1     H6       HEL1     0.150000       1.00800           0
     19055 MEMB     164      CHL1     C7       CRL2    -0.180000       12.0110           0
     19056 MEMB     164      CHL1     H7A      HGA2     0.900000E-01   1.00800           0
     19057 MEMB     164      CHL1     H7B      HGA2     0.900000E-01   1.00800           0
     19058 MEMB     164      CHL1     C8       CRL1    -0.900000E-01   12.0110           0
     19059 MEMB     164      CHL1     H8       HGA1     0.900000E-01   1.00800           0
     19060 MEMB     164      CHL1     C14      CRL1    -0.900000E-01   12.0110           0
     19061 MEMB     164      CHL1     H14      HGA1     0.900000E-01   1.00800           0
     19062 MEMB     164      CHL1     C15      CRL2    -0.180000       12.0110           0
     19063 MEMB     164      CHL1     H15A     HGA2     0.900000E-01   1.00800           0
     19064 MEMB     164      CHL1     H15B     HGA2     0.900000E-01   1.00800           0
     19065 MEMB     164      CHL1     C16      CRL2    -0.180000       12.0110           0
     19066 MEMB     164      CHL1     H16A     HGA2     0.900000E-01   1.00800           0
     19067 MEMB     164      CHL1     H16B     HGA2     0.900000E-01   1.00800           0
     19068 MEMB     164      CHL1     C17      CRL1    -0.900000E-01   12.0110           0
     19069 MEMB     164      CHL1     H17      HGA1     0.900000E-01   1.00800           0
     19070 MEMB     164      CHL1     C13      CRL1      0.00000       12.0110           0
     19071 MEMB     164      CHL1     C18      CTL3    -0.270000       12.0110           0
     19072 MEMB     164      CHL1     H18A     HAL3     0.900000E-01   1.00800           0
     19073 MEMB     164      CHL1     H18B     HAL3     0.900000E-01   1.00800           0
     19074 MEMB     164      CHL1     H18C     HAL3     0.900000E-01   1.00800           0
     19075 MEMB     164      CHL1     C12      CRL2    -0.180000       12.0110           0
     19076 MEMB     164      CHL1     H12A     HGA2     0.900000E-01   1.00800           0
     19077 MEMB     164      CHL1     H12B     HGA2     0.900000E-01   1.00800           0
     19078 MEMB     164      CHL1     C11      CRL2    -0.180000       12.0110           0
     19079 MEMB     164      CHL1     H11A     HGA2     0.900000E-01   1.00800           0
     19080 MEMB     164      CHL1     H11B     HGA2     0.900000E-01   1.00800           0
     19081 MEMB     164      CHL1     C9       CRL1    -0.900000E-01   12.0110           0
     19082 MEMB     164      CHL1     H9       HGA1     0.900000E-01   1.00800           0
     19083 MEMB     164      CHL1     C10      CRL1      0.00000       12.0110           0
     19084 MEMB     164      CHL1     C19      CTL3    -0.270000       12.0110           0
     19085 MEMB     164      CHL1     H19A     HAL3     0.900000E-01   1.00800           0
     19086 MEMB     164      CHL1     H19B     HAL3     0.900000E-01   1.00800           0
     19087 MEMB     164      CHL1     H19C     HAL3     0.900000E-01   1.00800           0
     19088 MEMB     164      CHL1     C1       CRL2    -0.180000       12.0110           0
     19089 MEMB     164      CHL1     H1A      HGA2     0.900000E-01   1.00800           0
     19090 MEMB     164      CHL1     H1B      HGA2     0.900000E-01   1.00800           0
     19091 MEMB     164      CHL1     C2       CRL2    -0.180000       12.0110           0
     19092 MEMB     164      CHL1     H2A      HGA2     0.900000E-01   1.00800           0
     19093 MEMB     164      CHL1     H2B      HGA2     0.900000E-01   1.00800           0
     19094 MEMB     164      CHL1     C20      CTL1    -0.900000E-01   12.0110           0
     19095 MEMB     164      CHL1     H20      HAL1     0.900000E-01   1.00800           0
     19096 MEMB     164      CHL1     C21      CTL3    -0.270000       12.0110           0
     19097 MEMB     164      CHL1     H21A     HAL3     0.900000E-01   1.00800           0
     19098 MEMB     164      CHL1     H21B     HAL3     0.900000E-01   1.00800           0
     19099 MEMB     164      CHL1     H21C     HAL3     0.900000E-01   1.00800           0
     19100 MEMB     164      CHL1     C22      CTL2    -0.180000       12.0110           0
     19101 MEMB     164      CHL1     H22A     HAL2     0.900000E-01   1.00800           0
     19102 MEMB     164      CHL1     H22B     HAL2     0.900000E-01   1.00800           0
     19103 MEMB     164      CHL1     C23      CTL2    -0.180000       12.0110           0
     19104 MEMB     164      CHL1     H23A     HAL2     0.900000E-01   1.00800           0
     19105 MEMB     164      CHL1     H23B     HAL2     0.900000E-01   1.00800           0
     19106 MEMB     164      CHL1     C24      CTL2    -0.180000       12.0110           0
     19107 MEMB     164      CHL1     H24A     HAL2     0.900000E-01   1.00800           0
     19108 MEMB     164      CHL1     H24B     HAL2     0.900000E-01   1.00800           0
     19109 MEMB     164      CHL1     C25      CTL1    -0.900000E-01   12.0110           0
     19110 MEMB     164      CHL1     H25      HAL1     0.900000E-01   1.00800           0
     19111 MEMB     164      CHL1     C26      CTL3    -0.270000       12.0110           0
     19112 MEMB     164      CHL1     H26A     HAL3     0.900000E-01   1.00800           0
     19113 MEMB     164      CHL1     H26B     HAL3     0.900000E-01   1.00800           0
     19114 MEMB     164      CHL1     H26C     HAL3     0.900000E-01   1.00800           0
     19115 MEMB     164      CHL1     C27      CTL3    -0.270000       12.0110           0
     19116 MEMB     164      CHL1     H27A     HAL3     0.900000E-01   1.00800           0
     19117 MEMB     164      CHL1     H27B     HAL3     0.900000E-01   1.00800           0
     19118 MEMB     164      CHL1     H27C     HAL3     0.900000E-01   1.00800           0
     19119 MEMB     165      SAPC     N        NTL     -0.600000       14.0070           0
     19120 MEMB     165      SAPC     C12      CTL2    -0.100000       12.0110           0
     19121 MEMB     165      SAPC     H12A     HL       0.250000       1.00800           0
     19122 MEMB     165      SAPC     H12B     HL       0.250000       1.00800           0
     19123 MEMB     165      SAPC     C13      CTL5    -0.350000       12.0110           0
     19124 MEMB     165      SAPC     H13A     HL       0.250000       1.00800           0
     19125 MEMB     165      SAPC     H13B     HL       0.250000       1.00800           0
     19126 MEMB     165      SAPC     H13C     HL       0.250000       1.00800           0
     19127 MEMB     165      SAPC     C14      CTL5    -0.350000       12.0110           0
     19128 MEMB     165      SAPC     H14A     HL       0.250000       1.00800           0
     19129 MEMB     165      SAPC     H14B     HL       0.250000       1.00800           0
     19130 MEMB     165      SAPC     H14C     HL       0.250000       1.00800           0
     19131 MEMB     165      SAPC     C15      CTL5    -0.350000       12.0110           0
     19132 MEMB     165      SAPC     H15A     HL       0.250000       1.00800           0
     19133 MEMB     165      SAPC     H15B     HL       0.250000       1.00800           0
     19134 MEMB     165      SAPC     H15C     HL       0.250000       1.00800           0
     19135 MEMB     165      SAPC     C11      CTL2    -0.800000E-01   12.0110           0
     19136 MEMB     165      SAPC     H11A     HAL2     0.900000E-01   1.00800           0
     19137 MEMB     165      SAPC     H11B     HAL2     0.900000E-01   1.00800           0
     19138 MEMB     165      SAPC     P        PL        1.50000       30.9740           0
     19139 MEMB     165      SAPC     O13      O2L     -0.780000       15.9994           0
     19140 MEMB     165      SAPC     O14      O2L     -0.780000       15.9994           0
     19141 MEMB     165      SAPC     O12      OSLP    -0.570000       15.9994           0
     19142 MEMB     165      SAPC     O11      OSLP    -0.570000       15.9994           0
     19143 MEMB     165      SAPC     C1       CTL2    -0.800000E-01   12.0110           0
     19144 MEMB     165      SAPC     HA       HAL2     0.900000E-01   1.00800           0
     19145 MEMB     165      SAPC     HB       HAL2     0.900000E-01   1.00800           0
     19146 MEMB     165      SAPC     C2       CTL1     0.170000       12.0110           0
     19147 MEMB     165      SAPC     HS       HAL1     0.900000E-01   1.00800           0
     19148 MEMB     165      SAPC     O21      OSL     -0.490000       15.9994           0
     19149 MEMB     165      SAPC     C21      CL       0.900000       12.0110           0
     19150 MEMB     165      SAPC     O22      OBL     -0.630000       15.9994           0
     19151 MEMB     165      SAPC     C22      CTL2    -0.220000       12.0110           0
     19152 MEMB     165      SAPC     H2R      HAL2     0.900000E-01   1.00800           0
     19153 MEMB     165      SAPC     H2S      HAL2     0.900000E-01   1.00800           0
     19154 MEMB     165      SAPC     C3       CTL2     0.800000E-01   12.0110           0
     19155 MEMB     165      SAPC     HX       HAL2     0.900000E-01   1.00800           0
     19156 MEMB     165      SAPC     HY       HAL2     0.900000E-01   1.00800           0
     19157 MEMB     165      SAPC     O31      OSL     -0.490000       15.9994           0
     19158 MEMB     165      SAPC     C31      CL       0.900000       12.0110           0
     19159 MEMB     165      SAPC     O32      OBL     -0.630000       15.9994           0
     19160 MEMB     165      SAPC     C32      CTL2    -0.220000       12.0110           0
     19161 MEMB     165      SAPC     H2X      HAL2     0.900000E-01   1.00800           0
     19162 MEMB     165      SAPC     H2Y      HAL2     0.900000E-01   1.00800           0
     19163 MEMB     165      SAPC     C23      CTL2    -0.180000       12.0110           0
     19164 MEMB     165      SAPC     H3R      HAL2     0.900000E-01   1.00800           0
     19165 MEMB     165      SAPC     H3S      HAL2     0.900000E-01   1.00800           0
     19166 MEMB     165      SAPC     C24      CTL2    -0.180000       12.0110           0
     19167 MEMB     165      SAPC     H4R      HAL2     0.900000E-01   1.00800           0
     19168 MEMB     165      SAPC     H4S      HAL2     0.900000E-01   1.00800           0
     19169 MEMB     165      SAPC     C25      CEL1    -0.150000       12.0110           0
     19170 MEMB     165      SAPC     H5R      HEL1     0.150000       1.00800           0
     19171 MEMB     165      SAPC     C26      CEL1    -0.150000       12.0110           0
     19172 MEMB     165      SAPC     H6R      HEL1     0.150000       1.00800           0
     19173 MEMB     165      SAPC     C27      CTL2    -0.180000       12.0110           0
     19174 MEMB     165      SAPC     H7R      HAL2     0.900000E-01   1.00800           0
     19175 MEMB     165      SAPC     H7S      HAL2     0.900000E-01   1.00800           0
     19176 MEMB     165      SAPC     C28      CEL1    -0.150000       12.0110           0
     19177 MEMB     165      SAPC     H8R      HEL1     0.150000       1.00800           0
     19178 MEMB     165      SAPC     C29      CEL1    -0.150000       12.0110           0
     19179 MEMB     165      SAPC     H9R      HEL1     0.150000       1.00800           0
     19180 MEMB     165      SAPC     C210     CTL2    -0.180000       12.0110           0
     19181 MEMB     165      SAPC     H10R     HAL2     0.900000E-01   1.00800           0
     19182 MEMB     165      SAPC     H10S     HAL2     0.900000E-01   1.00800           0
     19183 MEMB     165      SAPC     C211     CEL1    -0.150000       12.0110           0
     19184 MEMB     165      SAPC     H11R     HEL1     0.150000       1.00800           0
     19185 MEMB     165      SAPC     C212     CEL1    -0.150000       12.0110           0
     19186 MEMB     165      SAPC     H12R     HEL1     0.150000       1.00800           0
     19187 MEMB     165      SAPC     C213     CTL2    -0.180000       12.0110           0
     19188 MEMB     165      SAPC     H13R     HAL2     0.900000E-01   1.00800           0
     19189 MEMB     165      SAPC     H13S     HAL2     0.900000E-01   1.00800           0
     19190 MEMB     165      SAPC     C214     CEL1    -0.150000       12.0110           0
     19191 MEMB     165      SAPC     H14R     HEL1     0.150000       1.00800           0
     19192 MEMB     165      SAPC     C215     CEL1    -0.150000       12.0110           0
     19193 MEMB     165      SAPC     H15R     HEL1     0.150000       1.00800           0
     19194 MEMB     165      SAPC     C216     CTL2    -0.180000       12.0110           0
     19195 MEMB     165      SAPC     H16R     HAL2     0.900000E-01   1.00800           0
     19196 MEMB     165      SAPC     H16S     HAL2     0.900000E-01   1.00800           0
     19197 MEMB     165      SAPC     C217     CTL2    -0.180000       12.0110           0
     19198 MEMB     165      SAPC     H17R     HAL2     0.900000E-01   1.00800           0
     19199 MEMB     165      SAPC     H17S     HAL2     0.900000E-01   1.00800           0
     19200 MEMB     165      SAPC     C218     CTL2    -0.270000       12.0110           0
     19201 MEMB     165      SAPC     H18R     HAL2     0.900000E-01   1.00800           0
     19202 MEMB     165      SAPC     H18S     HAL2     0.900000E-01   1.00800           0
     19203 MEMB     165      SAPC     C219     CTL2    -0.180000       12.0110           0
     19204 MEMB     165      SAPC     H19R     HAL2     0.900000E-01   1.00800           0
     19205 MEMB     165      SAPC     H19S     HAL2     0.900000E-01   1.00800           0
     19206 MEMB     165      SAPC     C220     CTL3    -0.180000       12.0110           0
     19207 MEMB     165      SAPC     H20R     HAL3     0.900000E-01   1.00800           0
     19208 MEMB     165      SAPC     H20S     HAL3     0.900000E-01   1.00800           0
     19209 MEMB     165      SAPC     H20T     HAL3     0.900000E-01   1.00800           0
     19210 MEMB     165      SAPC     C33      CTL2    -0.180000       12.0110           0
     19211 MEMB     165      SAPC     H3X      HAL2     0.900000E-01   1.00800           0
     19212 MEMB     165      SAPC     H3Y      HAL2     0.900000E-01   1.00800           0
     19213 MEMB     165      SAPC     C34      CTL2    -0.180000       12.0110           0
     19214 MEMB     165      SAPC     H4X      HAL2     0.900000E-01   1.00800           0
     19215 MEMB     165      SAPC     H4Y      HAL2     0.900000E-01   1.00800           0
     19216 MEMB     165      SAPC     C35      CTL2    -0.180000       12.0110           0
     19217 MEMB     165      SAPC     H5X      HAL2     0.900000E-01   1.00800           0
     19218 MEMB     165      SAPC     H5Y      HAL2     0.900000E-01   1.00800           0
     19219 MEMB     165      SAPC     C36      CTL2    -0.180000       12.0110           0
     19220 MEMB     165      SAPC     H6X      HAL2     0.900000E-01   1.00800           0
     19221 MEMB     165      SAPC     H6Y      HAL2     0.900000E-01   1.00800           0
     19222 MEMB     165      SAPC     C37      CTL2    -0.180000       12.0110           0
     19223 MEMB     165      SAPC     H7X      HAL2     0.900000E-01   1.00800           0
     19224 MEMB     165      SAPC     H7Y      HAL2     0.900000E-01   1.00800           0
     19225 MEMB     165      SAPC     C38      CTL2    -0.180000       12.0110           0
     19226 MEMB     165      SAPC     H8X      HAL2     0.900000E-01   1.00800           0
     19227 MEMB     165      SAPC     H8Y      HAL2     0.900000E-01   1.00800           0
     19228 MEMB     165      SAPC     C39      CTL2    -0.180000       12.0110           0
     19229 MEMB     165      SAPC     H9X      HAL2     0.900000E-01   1.00800           0
     19230 MEMB     165      SAPC     H9Y      HAL2     0.900000E-01   1.00800           0
     19231 MEMB     165      SAPC     C310     CTL2    -0.180000       12.0110           0
     19232 MEMB     165      SAPC     H10X     HAL2     0.900000E-01   1.00800           0
     19233 MEMB     165      SAPC     H10Y     HAL2     0.900000E-01   1.00800           0
     19234 MEMB     165      SAPC     C311     CTL2    -0.180000       12.0110           0
     19235 MEMB     165      SAPC     H11X     HAL2     0.900000E-01   1.00800           0
     19236 MEMB     165      SAPC     H11Y     HAL2     0.900000E-01   1.00800           0
     19237 MEMB     165      SAPC     C312     CTL2    -0.180000       12.0110           0
     19238 MEMB     165      SAPC     H12X     HAL2     0.900000E-01   1.00800           0
     19239 MEMB     165      SAPC     H12Y     HAL2     0.900000E-01   1.00800           0
     19240 MEMB     165      SAPC     C313     CTL2    -0.180000       12.0110           0
     19241 MEMB     165      SAPC     H13X     HAL2     0.900000E-01   1.00800           0
     19242 MEMB     165      SAPC     H13Y     HAL2     0.900000E-01   1.00800           0
     19243 MEMB     165      SAPC     C314     CTL2    -0.180000       12.0110           0
     19244 MEMB     165      SAPC     H14X     HAL2     0.900000E-01   1.00800           0
     19245 MEMB     165      SAPC     H14Y     HAL2     0.900000E-01   1.00800           0
     19246 MEMB     165      SAPC     C315     CTL2    -0.180000       12.0110           0
     19247 MEMB     165      SAPC     H15X     HAL2     0.900000E-01   1.00800           0
     19248 MEMB     165      SAPC     H15Y     HAL2     0.900000E-01   1.00800           0
     19249 MEMB     165      SAPC     C316     CTL2    -0.180000       12.0110           0
     19250 MEMB     165      SAPC     H16X     HAL2     0.900000E-01   1.00800           0
     19251 MEMB     165      SAPC     H16Y     HAL2     0.900000E-01   1.00800           0
     19252 MEMB     165      SAPC     C317     CTL2    -0.180000       12.0110           0
     19253 MEMB     165      SAPC     H17X     HAL2     0.900000E-01   1.00800           0
     19254 MEMB     165      SAPC     H17Y     HAL2     0.900000E-01   1.00800           0
     19255 MEMB     165      SAPC     C318     CTL3    -0.270000       12.0110           0
     19256 MEMB     165      SAPC     H18X     HAL3     0.900000E-01   1.00800           0
     19257 MEMB     165      SAPC     H18Y     HAL3     0.900000E-01   1.00800           0
     19258 MEMB     165      SAPC     H18Z     HAL3     0.900000E-01   1.00800           0
     19259 MEMB     166      SAPS     N        NH3L    -0.300000       14.0070           0
     19260 MEMB     166      SAPS     HN1      HCL      0.330000       1.00800           0
     19261 MEMB     166      SAPS     HN2      HCL      0.330000       1.00800           0
     19262 MEMB     166      SAPS     HN3      HCL      0.330000       1.00800           0
     19263 MEMB     166      SAPS     C12      CTL1     0.210000       12.0110           0
     19264 MEMB     166      SAPS     H12A     HBL      0.100000       1.00800           0
     19265 MEMB     166      SAPS     C13      CCL      0.340000       12.0110           0
     19266 MEMB     166      SAPS     O13A     OCL     -0.670000       15.9994           0
     19267 MEMB     166      SAPS     O13B     OCL     -0.670000       15.9994           0
     19268 MEMB     166      SAPS     C11      CTL2    -0.800000E-01   12.0110           0
     19269 MEMB     166      SAPS     H11A     HAL2     0.900000E-01   1.00800           0
     19270 MEMB     166      SAPS     H11B     HAL2     0.900000E-01   1.00800           0
     19271 MEMB     166      SAPS     P        PL        1.50000       30.9740           0
     19272 MEMB     166      SAPS     O13      O2L     -0.780000       15.9994           0
     19273 MEMB     166      SAPS     O14      O2L     -0.780000       15.9994           0
     19274 MEMB     166      SAPS     O12      OSLP    -0.570000       15.9994           0
     19275 MEMB     166      SAPS     O11      OSLP    -0.570000       15.9994           0
     19276 MEMB     166      SAPS     C1       CTL2    -0.800000E-01   12.0110           0
     19277 MEMB     166      SAPS     HA       HAL2     0.900000E-01   1.00800           0
     19278 MEMB     166      SAPS     HB       HAL2     0.900000E-01   1.00800           0
     19279 MEMB     166      SAPS     C2       CTL1     0.170000       12.0110           0
     19280 MEMB     166      SAPS     HS       HAL1     0.900000E-01   1.00800           0
     19281 MEMB     166      SAPS     O21      OSL     -0.490000       15.9994           0
     19282 MEMB     166      SAPS     C21      CL       0.900000       12.0110           0
     19283 MEMB     166      SAPS     O22      OBL     -0.630000       15.9994           0
     19284 MEMB     166      SAPS     C22      CTL2    -0.220000       12.0110           0
     19285 MEMB     166      SAPS     H2R      HAL2     0.900000E-01   1.00800           0
     19286 MEMB     166      SAPS     H2S      HAL2     0.900000E-01   1.00800           0
     19287 MEMB     166      SAPS     C3       CTL2     0.800000E-01   12.0110           0
     19288 MEMB     166      SAPS     HX       HAL2     0.900000E-01   1.00800           0
     19289 MEMB     166      SAPS     HY       HAL2     0.900000E-01   1.00800           0
     19290 MEMB     166      SAPS     O31      OSL     -0.490000       15.9994           0
     19291 MEMB     166      SAPS     C31      CL       0.900000       12.0110           0
     19292 MEMB     166      SAPS     O32      OBL     -0.630000       15.9994           0
     19293 MEMB     166      SAPS     C32      CTL2    -0.220000       12.0110           0
     19294 MEMB     166      SAPS     H2X      HAL2     0.900000E-01   1.00800           0
     19295 MEMB     166      SAPS     H2Y      HAL2     0.900000E-01   1.00800           0
     19296 MEMB     166      SAPS     C23      CTL2    -0.180000       12.0110           0
     19297 MEMB     166      SAPS     H3R      HAL2     0.900000E-01   1.00800           0
     19298 MEMB     166      SAPS     H3S      HAL2     0.900000E-01   1.00800           0
     19299 MEMB     166      SAPS     C24      CTL2    -0.180000       12.0110           0
     19300 MEMB     166      SAPS     H4R      HAL2     0.900000E-01   1.00800           0
     19301 MEMB     166      SAPS     H4S      HAL2     0.900000E-01   1.00800           0
     19302 MEMB     166      SAPS     C25      CEL1    -0.150000       12.0110           0
     19303 MEMB     166      SAPS     H5R      HEL1     0.150000       1.00800           0
     19304 MEMB     166      SAPS     C26      CEL1    -0.150000       12.0110           0
     19305 MEMB     166      SAPS     H6R      HEL1     0.150000       1.00800           0
     19306 MEMB     166      SAPS     C27      CTL2    -0.180000       12.0110           0
     19307 MEMB     166      SAPS     H7R      HAL2     0.900000E-01   1.00800           0
     19308 MEMB     166      SAPS     H7S      HAL2     0.900000E-01   1.00800           0
     19309 MEMB     166      SAPS     C28      CEL1    -0.150000       12.0110           0
     19310 MEMB     166      SAPS     H8R      HEL1     0.150000       1.00800           0
     19311 MEMB     166      SAPS     C29      CEL1    -0.150000       12.0110           0
     19312 MEMB     166      SAPS     H9R      HEL1     0.150000       1.00800           0
     19313 MEMB     166      SAPS     C210     CTL2    -0.180000       12.0110           0
     19314 MEMB     166      SAPS     H10R     HAL2     0.900000E-01   1.00800           0
     19315 MEMB     166      SAPS     H10S     HAL2     0.900000E-01   1.00800           0
     19316 MEMB     166      SAPS     C211     CEL1    -0.150000       12.0110           0
     19317 MEMB     166      SAPS     H11R     HEL1     0.150000       1.00800           0
     19318 MEMB     166      SAPS     C212     CEL1    -0.150000       12.0110           0
     19319 MEMB     166      SAPS     H12R     HEL1     0.150000       1.00800           0
     19320 MEMB     166      SAPS     C213     CTL2    -0.180000       12.0110           0
     19321 MEMB     166      SAPS     H13R     HAL2     0.900000E-01   1.00800           0
     19322 MEMB     166      SAPS     H13S     HAL2     0.900000E-01   1.00800           0
     19323 MEMB     166      SAPS     C214     CEL1    -0.150000       12.0110           0
     19324 MEMB     166      SAPS     H14R     HEL1     0.150000       1.00800           0
     19325 MEMB     166      SAPS     C215     CEL1    -0.150000       12.0110           0
     19326 MEMB     166      SAPS     H15R     HEL1     0.150000       1.00800           0
     19327 MEMB     166      SAPS     C216     CTL2    -0.180000       12.0110           0
     19328 MEMB     166      SAPS     H16R     HAL2     0.900000E-01   1.00800           0
     19329 MEMB     166      SAPS     H16S     HAL2     0.900000E-01   1.00800           0
     19330 MEMB     166      SAPS     C217     CTL2    -0.180000       12.0110           0
     19331 MEMB     166      SAPS     H17R     HAL2     0.900000E-01   1.00800           0
     19332 MEMB     166      SAPS     H17S     HAL2     0.900000E-01   1.00800           0
     19333 MEMB     166      SAPS     C218     CTL2    -0.180000       12.0110           0
     19334 MEMB     166      SAPS     H18R     HAL2     0.900000E-01   1.00800           0
     19335 MEMB     166      SAPS     H18S     HAL2     0.900000E-01   1.00800           0
     19336 MEMB     166      SAPS     C219     CTL2    -0.180000       12.0110           0
     19337 MEMB     166      SAPS     H19R     HAL2     0.900000E-01   1.00800           0
     19338 MEMB     166      SAPS     H19S     HAL2     0.900000E-01   1.00800           0
     19339 MEMB     166      SAPS     C220     CTL3    -0.270000       12.0110           0
     19340 MEMB     166      SAPS     H20R     HAL3     0.900000E-01   1.00800           0
     19341 MEMB     166      SAPS     H20S     HAL3     0.900000E-01   1.00800           0
     19342 MEMB     166      SAPS     H20T     HAL3     0.900000E-01   1.00800           0
     19343 MEMB     166      SAPS     C33      CTL2    -0.180000       12.0110           0
     19344 MEMB     166      SAPS     H3X      HAL2     0.900000E-01   1.00800           0
     19345 MEMB     166      SAPS     H3Y      HAL2     0.900000E-01   1.00800           0
     19346 MEMB     166      SAPS     C34      CTL2    -0.180000       12.0110           0
     19347 MEMB     166      SAPS     H4X      HAL2     0.900000E-01   1.00800           0
     19348 MEMB     166      SAPS     H4Y      HAL2     0.900000E-01   1.00800           0
     19349 MEMB     166      SAPS     C35      CTL2    -0.180000       12.0110           0
     19350 MEMB     166      SAPS     H5X      HAL2     0.900000E-01   1.00800           0
     19351 MEMB     166      SAPS     H5Y      HAL2     0.900000E-01   1.00800           0
     19352 MEMB     166      SAPS     C36      CTL2    -0.180000       12.0110           0
     19353 MEMB     166      SAPS     H6X      HAL2     0.900000E-01   1.00800           0
     19354 MEMB     166      SAPS     H6Y      HAL2     0.900000E-01   1.00800           0
     19355 MEMB     166      SAPS     C37      CTL2    -0.180000       12.0110           0
     19356 MEMB     166      SAPS     H7X      HAL2     0.900000E-01   1.00800           0
     19357 MEMB     166      SAPS     H7Y      HAL2     0.900000E-01   1.00800           0
     19358 MEMB     166      SAPS     C38      CTL2    -0.180000       12.0110           0
     19359 MEMB     166      SAPS     H8X      HAL2     0.900000E-01   1.00800           0
     19360 MEMB     166      SAPS     H8Y      HAL2     0.900000E-01   1.00800           0
     19361 MEMB     166      SAPS     C39      CTL2    -0.180000       12.0110           0
     19362 MEMB     166      SAPS     H9X      HAL2     0.900000E-01   1.00800           0
     19363 MEMB     166      SAPS     H9Y      HAL2     0.900000E-01   1.00800           0
     19364 MEMB     166      SAPS     C310     CTL2    -0.180000       12.0110           0
     19365 MEMB     166      SAPS     H10X     HAL2     0.900000E-01   1.00800           0
     19366 MEMB     166      SAPS     H10Y     HAL2     0.900000E-01   1.00800           0
     19367 MEMB     166      SAPS     C311     CTL2    -0.180000       12.0110           0
     19368 MEMB     166      SAPS     H11X     HAL2     0.900000E-01   1.00800           0
     19369 MEMB     166      SAPS     H11Y     HAL2     0.900000E-01   1.00800           0
     19370 MEMB     166      SAPS     C312     CTL2    -0.180000       12.0110           0
     19371 MEMB     166      SAPS     H12X     HAL2     0.900000E-01   1.00800           0
     19372 MEMB     166      SAPS     H12Y     HAL2     0.900000E-01   1.00800           0
     19373 MEMB     166      SAPS     C313     CTL2    -0.180000       12.0110           0
     19374 MEMB     166      SAPS     H13X     HAL2     0.900000E-01   1.00800           0
     19375 MEMB     166      SAPS     H13Y     HAL2     0.900000E-01   1.00800           0
     19376 MEMB     166      SAPS     C314     CTL2    -0.180000       12.0110           0
     19377 MEMB     166      SAPS     H14X     HAL2     0.900000E-01   1.00800           0
     19378 MEMB     166      SAPS     H14Y     HAL2     0.900000E-01   1.00800           0
     19379 MEMB     166      SAPS     C315     CTL2    -0.180000       12.0110           0
     19380 MEMB     166      SAPS     H15X     HAL2     0.900000E-01   1.00800           0
     19381 MEMB     166      SAPS     H15Y     HAL2     0.900000E-01   1.00800           0
     19382 MEMB     166      SAPS     C316     CTL2    -0.180000       12.0110           0
     19383 MEMB     166      SAPS     H16X     HAL2     0.900000E-01   1.00800           0
     19384 MEMB     166      SAPS     H16Y     HAL2     0.900000E-01   1.00800           0
     19385 MEMB     166      SAPS     C317     CTL2    -0.180000       12.0110           0
     19386 MEMB     166      SAPS     H17X     HAL2     0.900000E-01   1.00800           0
     19387 MEMB     166      SAPS     H17Y     HAL2     0.900000E-01   1.00800           0
     19388 MEMB     166      SAPS     C318     CTL3    -0.270000       12.0110           0
     19389 MEMB     166      SAPS     H18X     HAL3     0.900000E-01   1.00800           0
     19390 MEMB     166      SAPS     H18Y     HAL3     0.900000E-01   1.00800           0
     19391 MEMB     166      SAPS     H18Z     HAL3     0.900000E-01   1.00800           0
     19392 MEMB     167      OSM      N        NTL     -0.600000       14.0070           0
     19393 MEMB     167      OSM      C15      CTL5    -0.350000       12.0110           0
     19394 MEMB     167      OSM      H15A     HL       0.250000       1.00800           0
     19395 MEMB     167      OSM      H15B     HL       0.250000       1.00800           0
     19396 MEMB     167      OSM      H15C     HL       0.250000       1.00800           0
     19397 MEMB     167      OSM      C14      CTL5    -0.350000       12.0110           0
     19398 MEMB     167      OSM      H14A     HL       0.250000       1.00800           0
     19399 MEMB     167      OSM      H14B     HL       0.250000       1.00800           0
     19400 MEMB     167      OSM      H14C     HL       0.250000       1.00800           0
     19401 MEMB     167      OSM      C13      CTL5    -0.350000       12.0110           0
     19402 MEMB     167      OSM      H13A     HL       0.250000       1.00800           0
     19403 MEMB     167      OSM      H13B     HL       0.250000       1.00800           0
     19404 MEMB     167      OSM      H13C     HL       0.250000       1.00800           0
     19405 MEMB     167      OSM      C12      CTL2    -0.100000       12.0110           0
     19406 MEMB     167      OSM      H12A     HL       0.250000       1.00800           0
     19407 MEMB     167      OSM      H12B     HL       0.250000       1.00800           0
     19408 MEMB     167      OSM      C11      CTL2    -0.800000E-01   12.0110           0
     19409 MEMB     167      OSM      H11A     HAL2     0.900000E-01   1.00800           0
     19410 MEMB     167      OSM      H11B     HAL2     0.900000E-01   1.00800           0
     19411 MEMB     167      OSM      P        PL        1.50000       30.9740           0
     19412 MEMB     167      OSM      O13      O2L     -0.780000       15.9994           0
     19413 MEMB     167      OSM      O14      O2L     -0.780000       15.9994           0
     19414 MEMB     167      OSM      O11      OSLP    -0.570000       15.9994           0
     19415 MEMB     167      OSM      O12      OSLP    -0.570000       15.9994           0
     19416 MEMB     167      OSM      C1S      CTL2    -0.800000E-01   12.0110           0
     19417 MEMB     167      OSM      H1S      HAL2     0.900000E-01   1.00800           0
     19418 MEMB     167      OSM      H1T      HAL2     0.900000E-01   1.00800           0
     19419 MEMB     167      OSM      NF       NHL     -0.700000       14.0070           0
     19420 MEMB     167      OSM      HNF      H        0.350000       1.00800           0
     19421 MEMB     167      OSM      C2S      CTL1     0.300000       12.0110           0
     19422 MEMB     167      OSM      H2S      HAL1     0.500000E-01   1.00800           0
     19423 MEMB     167      OSM      C3S      CTO1     0.500000       12.0110           0
     19424 MEMB     167      OSM      H3S      HAL1    -0.110000       1.00800           0
     19425 MEMB     167      OSM      O3       OHL     -0.690000       15.9994           0
     19426 MEMB     167      OSM      HO3      HOL      0.300000       1.00800           0
     19427 MEMB     167      OSM      C4S      CEL3    -0.150000       12.0110           0
     19428 MEMB     167      OSM      H4S      HEL1     0.150000       1.00800           0
     19429 MEMB     167      OSM      C5S      CEL3    -0.150000       12.0110           0
     19430 MEMB     167      OSM      H5S      HEL1     0.150000       1.00800           0
     19431 MEMB     167      OSM      C6S      CTL2    -0.180000       12.0110           0
     19432 MEMB     167      OSM      H6S      HAL2     0.900000E-01   1.00800           0
     19433 MEMB     167      OSM      H6T      HAL2     0.900000E-01   1.00800           0
     19434 MEMB     167      OSM      C7S      CTL2    -0.180000       12.0110           0
     19435 MEMB     167      OSM      H7S      HAL2     0.900000E-01   1.00800           0
     19436 MEMB     167      OSM      H7T      HAL2     0.900000E-01   1.00800           0
     19437 MEMB     167      OSM      C8S      CTL2    -0.180000       12.0110           0
     19438 MEMB     167      OSM      H8S      HAL2     0.900000E-01   1.00800           0
     19439 MEMB     167      OSM      H8T      HAL2     0.900000E-01   1.00800           0
     19440 MEMB     167      OSM      C9S      CTL2    -0.180000       12.0110           0
     19441 MEMB     167      OSM      H9S      HAL2     0.900000E-01   1.00800           0
     19442 MEMB     167      OSM      H9T      HAL2     0.900000E-01   1.00800           0
     19443 MEMB     167      OSM      C10S     CTL2    -0.180000       12.0110           0
     19444 MEMB     167      OSM      H10S     HAL2     0.900000E-01   1.00800           0
     19445 MEMB     167      OSM      H10T     HAL2     0.900000E-01   1.00800           0
     19446 MEMB     167      OSM      C11S     CTL2    -0.180000       12.0110           0
     19447 MEMB     167      OSM      H11S     HAL2     0.900000E-01   1.00800           0
     19448 MEMB     167      OSM      H11T     HAL2     0.900000E-01   1.00800           0
     19449 MEMB     167      OSM      C12S     CTL2    -0.180000       12.0110           0
     19450 MEMB     167      OSM      H12S     HAL2     0.900000E-01   1.00800           0
     19451 MEMB     167      OSM      H12T     HAL2     0.900000E-01   1.00800           0
     19452 MEMB     167      OSM      C13S     CTL2    -0.180000       12.0110           0
     19453 MEMB     167      OSM      H13S     HAL2     0.900000E-01   1.00800           0
     19454 MEMB     167      OSM      H13T     HAL2     0.900000E-01   1.00800           0
     19455 MEMB     167      OSM      C14S     CTL2    -0.180000       12.0110           0
     19456 MEMB     167      OSM      H14S     HAL2     0.900000E-01   1.00800           0
     19457 MEMB     167      OSM      H14T     HAL2     0.900000E-01   1.00800           0
     19458 MEMB     167      OSM      C15S     CTL2    -0.180000       12.0110           0
     19459 MEMB     167      OSM      H15S     HAL2     0.900000E-01   1.00800           0
     19460 MEMB     167      OSM      H15T     HAL2     0.900000E-01   1.00800           0
     19461 MEMB     167      OSM      C16S     CTL2    -0.180000       12.0110           0
     19462 MEMB     167      OSM      H16S     HAL2     0.900000E-01   1.00800           0
     19463 MEMB     167      OSM      H16T     HAL2     0.900000E-01   1.00800           0
     19464 MEMB     167      OSM      C17S     CTL2    -0.180000       12.0110           0
     19465 MEMB     167      OSM      H17S     HAL2     0.900000E-01   1.00800           0
     19466 MEMB     167      OSM      H17T     HAL2     0.900000E-01   1.00800           0
     19467 MEMB     167      OSM      C18S     CTL3    -0.270000       12.0110           0
     19468 MEMB     167      OSM      H18S     HAL3     0.900000E-01   1.00800           0
     19469 MEMB     167      OSM      H18T     HAL3     0.900000E-01   1.00800           0
     19470 MEMB     167      OSM      H18U     HAL3     0.900000E-01   1.00800           0
     19471 MEMB     167      OSM      C1F      C        0.550000       12.0110           0
     19472 MEMB     167      OSM      OF       O       -0.600000       15.9994           0
     19473 MEMB     167      OSM      C2F      CTL2    -0.700000E-01   12.0110           0
     19474 MEMB     167      OSM      H2F      HAL2     0.600000E-01   1.00800           0
     19475 MEMB     167      OSM      H2G      HAL2     0.600000E-01   1.00800           0
     19476 MEMB     167      OSM      C3F      CTL2    -0.180000       12.0110           0
     19477 MEMB     167      OSM      H3F      HAL2     0.900000E-01   1.00800           0
     19478 MEMB     167      OSM      H3G      HAL2     0.900000E-01   1.00800           0
     19479 MEMB     167      OSM      C4F      CTL2    -0.180000       12.0110           0
     19480 MEMB     167      OSM      H4F      HAL2     0.900000E-01   1.00800           0
     19481 MEMB     167      OSM      H4G      HAL2     0.900000E-01   1.00800           0
     19482 MEMB     167      OSM      C5F      CTL2    -0.180000       12.0110           0
     19483 MEMB     167      OSM      H5F      HAL2     0.900000E-01   1.00800           0
     19484 MEMB     167      OSM      H5G      HAL2     0.900000E-01   1.00800           0
     19485 MEMB     167      OSM      C6F      CTL2    -0.180000       12.0110           0
     19486 MEMB     167      OSM      H6F      HAL2     0.900000E-01   1.00800           0
     19487 MEMB     167      OSM      H6G      HAL2     0.900000E-01   1.00800           0
     19488 MEMB     167      OSM      C7F      CTL2    -0.180000       12.0110           0
     19489 MEMB     167      OSM      H7F      HAL2     0.900000E-01   1.00800           0
     19490 MEMB     167      OSM      H7G      HAL2     0.900000E-01   1.00800           0
     19491 MEMB     167      OSM      C8F      CTL2    -0.180000       12.0110           0
     19492 MEMB     167      OSM      H8F      HAL2     0.900000E-01   1.00800           0
     19493 MEMB     167      OSM      H8G      HAL2     0.900000E-01   1.00800           0
     19494 MEMB     167      OSM      C9F      CEL1    -0.150000       12.0110           0
     19495 MEMB     167      OSM      H9F      HEL1     0.150000       1.00800           0
     19496 MEMB     167      OSM      C10F     CEL1    -0.150000       12.0110           0
     19497 MEMB     167      OSM      H10F     HEL1     0.150000       1.00800           0
     19498 MEMB     167      OSM      C11F     CTL2    -0.180000       12.0110           0
     19499 MEMB     167      OSM      H11F     HAL2     0.900000E-01   1.00800           0
     19500 MEMB     167      OSM      H11G     HAL2     0.900000E-01   1.00800           0
     19501 MEMB     167      OSM      C12F     CTL2    -0.180000       12.0110           0
     19502 MEMB     167      OSM      H12F     HAL2     0.900000E-01   1.00800           0
     19503 MEMB     167      OSM      H12G     HAL2     0.900000E-01   1.00800           0
     19504 MEMB     167      OSM      C13F     CTL2    -0.180000       12.0110           0
     19505 MEMB     167      OSM      H13F     HAL2     0.900000E-01   1.00800           0
     19506 MEMB     167      OSM      H13G     HAL2     0.900000E-01   1.00800           0
     19507 MEMB     167      OSM      C14F     CTL2    -0.180000       12.0110           0
     19508 MEMB     167      OSM      H14F     HAL2     0.900000E-01   1.00800           0
     19509 MEMB     167      OSM      H14G     HAL2     0.900000E-01   1.00800           0
     19510 MEMB     167      OSM      C15F     CTL2    -0.180000       12.0110           0
     19511 MEMB     167      OSM      H15F     HAL2     0.900000E-01   1.00800           0
     19512 MEMB     167      OSM      H15G     HAL2     0.900000E-01   1.00800           0
     19513 MEMB     167      OSM      C16F     CTL2    -0.180000       12.0110           0
     19514 MEMB     167      OSM      H16F     HAL2     0.900000E-01   1.00800           0
     19515 MEMB     167      OSM      H16G     HAL2     0.900000E-01   1.00800           0
     19516 MEMB     167      OSM      C17F     CTL2    -0.180000       12.0110           0
     19517 MEMB     167      OSM      H17F     HAL2     0.900000E-01   1.00800           0
     19518 MEMB     167      OSM      H17G     HAL2     0.900000E-01   1.00800           0
     19519 MEMB     167      OSM      C18F     CTL3    -0.270000       12.0110           0
     19520 MEMB     167      OSM      H18F     HAL3     0.900000E-01   1.00800           0
     19521 MEMB     167      OSM      H18G     HAL3     0.900000E-01   1.00800           0
     19522 MEMB     167      OSM      H18H     HAL3     0.900000E-01   1.00800           0
     19523 MEMB     168      SAPS     N        NH3L    -0.300000       14.0070           0
     19524 MEMB     168      SAPS     HN1      HCL      0.330000       1.00800           0
     19525 MEMB     168      SAPS     HN2      HCL      0.330000       1.00800           0
     19526 MEMB     168      SAPS     HN3      HCL      0.330000       1.00800           0
     19527 MEMB     168      SAPS     C12      CTL1     0.210000       12.0110           0
     19528 MEMB     168      SAPS     H12A     HBL      0.100000       1.00800           0
     19529 MEMB     168      SAPS     C13      CCL      0.340000       12.0110           0
     19530 MEMB     168      SAPS     O13A     OCL     -0.670000       15.9994           0
     19531 MEMB     168      SAPS     O13B     OCL     -0.670000       15.9994           0
     19532 MEMB     168      SAPS     C11      CTL2    -0.800000E-01   12.0110           0
     19533 MEMB     168      SAPS     H11A     HAL2     0.900000E-01   1.00800           0
     19534 MEMB     168      SAPS     H11B     HAL2     0.900000E-01   1.00800           0
     19535 MEMB     168      SAPS     P        PL        1.50000       30.9740           0
     19536 MEMB     168      SAPS     O13      O2L     -0.780000       15.9994           0
     19537 MEMB     168      SAPS     O14      O2L     -0.780000       15.9994           0
     19538 MEMB     168      SAPS     O12      OSLP    -0.570000       15.9994           0
     19539 MEMB     168      SAPS     O11      OSLP    -0.570000       15.9994           0
     19540 MEMB     168      SAPS     C1       CTL2    -0.800000E-01   12.0110           0
     19541 MEMB     168      SAPS     HA       HAL2     0.900000E-01   1.00800           0
     19542 MEMB     168      SAPS     HB       HAL2     0.900000E-01   1.00800           0
     19543 MEMB     168      SAPS     C2       CTL1     0.170000       12.0110           0
     19544 MEMB     168      SAPS     HS       HAL1     0.900000E-01   1.00800           0
     19545 MEMB     168      SAPS     O21      OSL     -0.490000       15.9994           0
     19546 MEMB     168      SAPS     C21      CL       0.900000       12.0110           0
     19547 MEMB     168      SAPS     O22      OBL     -0.630000       15.9994           0
     19548 MEMB     168      SAPS     C22      CTL2    -0.220000       12.0110           0
     19549 MEMB     168      SAPS     H2R      HAL2     0.900000E-01   1.00800           0
     19550 MEMB     168      SAPS     H2S      HAL2     0.900000E-01   1.00800           0
     19551 MEMB     168      SAPS     C3       CTL2     0.800000E-01   12.0110           0
     19552 MEMB     168      SAPS     HX       HAL2     0.900000E-01   1.00800           0
     19553 MEMB     168      SAPS     HY       HAL2     0.900000E-01   1.00800           0
     19554 MEMB     168      SAPS     O31      OSL     -0.490000       15.9994           0
     19555 MEMB     168      SAPS     C31      CL       0.900000       12.0110           0
     19556 MEMB     168      SAPS     O32      OBL     -0.630000       15.9994           0
     19557 MEMB     168      SAPS     C32      CTL2    -0.220000       12.0110           0
     19558 MEMB     168      SAPS     H2X      HAL2     0.900000E-01   1.00800           0
     19559 MEMB     168      SAPS     H2Y      HAL2     0.900000E-01   1.00800           0
     19560 MEMB     168      SAPS     C23      CTL2    -0.180000       12.0110           0
     19561 MEMB     168      SAPS     H3R      HAL2     0.900000E-01   1.00800           0
     19562 MEMB     168      SAPS     H3S      HAL2     0.900000E-01   1.00800           0
     19563 MEMB     168      SAPS     C24      CTL2    -0.180000       12.0110           0
     19564 MEMB     168      SAPS     H4R      HAL2     0.900000E-01   1.00800           0
     19565 MEMB     168      SAPS     H4S      HAL2     0.900000E-01   1.00800           0
     19566 MEMB     168      SAPS     C25      CEL1    -0.150000       12.0110           0
     19567 MEMB     168      SAPS     H5R      HEL1     0.150000       1.00800           0
     19568 MEMB     168      SAPS     C26      CEL1    -0.150000       12.0110           0
     19569 MEMB     168      SAPS     H6R      HEL1     0.150000       1.00800           0
     19570 MEMB     168      SAPS     C27      CTL2    -0.180000       12.0110           0
     19571 MEMB     168      SAPS     H7R      HAL2     0.900000E-01   1.00800           0
     19572 MEMB     168      SAPS     H7S      HAL2     0.900000E-01   1.00800           0
     19573 MEMB     168      SAPS     C28      CEL1    -0.150000       12.0110           0
     19574 MEMB     168      SAPS     H8R      HEL1     0.150000       1.00800           0
     19575 MEMB     168      SAPS     C29      CEL1    -0.150000       12.0110           0
     19576 MEMB     168      SAPS     H9R      HEL1     0.150000       1.00800           0
     19577 MEMB     168      SAPS     C210     CTL2    -0.180000       12.0110           0
     19578 MEMB     168      SAPS     H10R     HAL2     0.900000E-01   1.00800           0
     19579 MEMB     168      SAPS     H10S     HAL2     0.900000E-01   1.00800           0
     19580 MEMB     168      SAPS     C211     CEL1    -0.150000       12.0110           0
     19581 MEMB     168      SAPS     H11R     HEL1     0.150000       1.00800           0
     19582 MEMB     168      SAPS     C212     CEL1    -0.150000       12.0110           0
     19583 MEMB     168      SAPS     H12R     HEL1     0.150000       1.00800           0
     19584 MEMB     168      SAPS     C213     CTL2    -0.180000       12.0110           0
     19585 MEMB     168      SAPS     H13R     HAL2     0.900000E-01   1.00800           0
     19586 MEMB     168      SAPS     H13S     HAL2     0.900000E-01   1.00800           0
     19587 MEMB     168      SAPS     C214     CEL1    -0.150000       12.0110           0
     19588 MEMB     168      SAPS     H14R     HEL1     0.150000       1.00800           0
     19589 MEMB     168      SAPS     C215     CEL1    -0.150000       12.0110           0
     19590 MEMB     168      SAPS     H15R     HEL1     0.150000       1.00800           0
     19591 MEMB     168      SAPS     C216     CTL2    -0.180000       12.0110           0
     19592 MEMB     168      SAPS     H16R     HAL2     0.900000E-01   1.00800           0
     19593 MEMB     168      SAPS     H16S     HAL2     0.900000E-01   1.00800           0
     19594 MEMB     168      SAPS     C217     CTL2    -0.180000       12.0110           0
     19595 MEMB     168      SAPS     H17R     HAL2     0.900000E-01   1.00800           0
     19596 MEMB     168      SAPS     H17S     HAL2     0.900000E-01   1.00800           0
     19597 MEMB     168      SAPS     C218     CTL2    -0.180000       12.0110           0
     19598 MEMB     168      SAPS     H18R     HAL2     0.900000E-01   1.00800           0
     19599 MEMB     168      SAPS     H18S     HAL2     0.900000E-01   1.00800           0
     19600 MEMB     168      SAPS     C219     CTL2    -0.180000       12.0110           0
     19601 MEMB     168      SAPS     H19R     HAL2     0.900000E-01   1.00800           0
     19602 MEMB     168      SAPS     H19S     HAL2     0.900000E-01   1.00800           0
     19603 MEMB     168      SAPS     C220     CTL3    -0.270000       12.0110           0
     19604 MEMB     168      SAPS     H20R     HAL3     0.900000E-01   1.00800           0
     19605 MEMB     168      SAPS     H20S     HAL3     0.900000E-01   1.00800           0
     19606 MEMB     168      SAPS     H20T     HAL3     0.900000E-01   1.00800           0
     19607 MEMB     168      SAPS     C33      CTL2    -0.180000       12.0110           0
     19608 MEMB     168      SAPS     H3X      HAL2     0.900000E-01   1.00800           0
     19609 MEMB     168      SAPS     H3Y      HAL2     0.900000E-01   1.00800           0
     19610 MEMB     168      SAPS     C34      CTL2    -0.180000       12.0110           0
     19611 MEMB     168      SAPS     H4X      HAL2     0.900000E-01   1.00800           0
     19612 MEMB     168      SAPS     H4Y      HAL2     0.900000E-01   1.00800           0
     19613 MEMB     168      SAPS     C35      CTL2    -0.180000       12.0110           0
     19614 MEMB     168      SAPS     H5X      HAL2     0.900000E-01   1.00800           0
     19615 MEMB     168      SAPS     H5Y      HAL2     0.900000E-01   1.00800           0
     19616 MEMB     168      SAPS     C36      CTL2    -0.180000       12.0110           0
     19617 MEMB     168      SAPS     H6X      HAL2     0.900000E-01   1.00800           0
     19618 MEMB     168      SAPS     H6Y      HAL2     0.900000E-01   1.00800           0
     19619 MEMB     168      SAPS     C37      CTL2    -0.180000       12.0110           0
     19620 MEMB     168      SAPS     H7X      HAL2     0.900000E-01   1.00800           0
     19621 MEMB     168      SAPS     H7Y      HAL2     0.900000E-01   1.00800           0
     19622 MEMB     168      SAPS     C38      CTL2    -0.180000       12.0110           0
     19623 MEMB     168      SAPS     H8X      HAL2     0.900000E-01   1.00800           0
     19624 MEMB     168      SAPS     H8Y      HAL2     0.900000E-01   1.00800           0
     19625 MEMB     168      SAPS     C39      CTL2    -0.180000       12.0110           0
     19626 MEMB     168      SAPS     H9X      HAL2     0.900000E-01   1.00800           0
     19627 MEMB     168      SAPS     H9Y      HAL2     0.900000E-01   1.00800           0
     19628 MEMB     168      SAPS     C310     CTL2    -0.180000       12.0110           0
     19629 MEMB     168      SAPS     H10X     HAL2     0.900000E-01   1.00800           0
     19630 MEMB     168      SAPS     H10Y     HAL2     0.900000E-01   1.00800           0
     19631 MEMB     168      SAPS     C311     CTL2    -0.180000       12.0110           0
     19632 MEMB     168      SAPS     H11X     HAL2     0.900000E-01   1.00800           0
     19633 MEMB     168      SAPS     H11Y     HAL2     0.900000E-01   1.00800           0
     19634 MEMB     168      SAPS     C312     CTL2    -0.180000       12.0110           0
     19635 MEMB     168      SAPS     H12X     HAL2     0.900000E-01   1.00800           0
     19636 MEMB     168      SAPS     H12Y     HAL2     0.900000E-01   1.00800           0
     19637 MEMB     168      SAPS     C313     CTL2    -0.180000       12.0110           0
     19638 MEMB     168      SAPS     H13X     HAL2     0.900000E-01   1.00800           0
     19639 MEMB     168      SAPS     H13Y     HAL2     0.900000E-01   1.00800           0
     19640 MEMB     168      SAPS     C314     CTL2    -0.180000       12.0110           0
     19641 MEMB     168      SAPS     H14X     HAL2     0.900000E-01   1.00800           0
     19642 MEMB     168      SAPS     H14Y     HAL2     0.900000E-01   1.00800           0
     19643 MEMB     168      SAPS     C315     CTL2    -0.180000       12.0110           0
     19644 MEMB     168      SAPS     H15X     HAL2     0.900000E-01   1.00800           0
     19645 MEMB     168      SAPS     H15Y     HAL2     0.900000E-01   1.00800           0
     19646 MEMB     168      SAPS     C316     CTL2    -0.180000       12.0110           0
     19647 MEMB     168      SAPS     H16X     HAL2     0.900000E-01   1.00800           0
     19648 MEMB     168      SAPS     H16Y     HAL2     0.900000E-01   1.00800           0
     19649 MEMB     168      SAPS     C317     CTL2    -0.180000       12.0110           0
     19650 MEMB     168      SAPS     H17X     HAL2     0.900000E-01   1.00800           0
     19651 MEMB     168      SAPS     H17Y     HAL2     0.900000E-01   1.00800           0
     19652 MEMB     168      SAPS     C318     CTL3    -0.270000       12.0110           0
     19653 MEMB     168      SAPS     H18X     HAL3     0.900000E-01   1.00800           0
     19654 MEMB     168      SAPS     H18Y     HAL3     0.900000E-01   1.00800           0
     19655 MEMB     168      SAPS     H18Z     HAL3     0.900000E-01   1.00800           0
     19656 MEMB     169      SAPE     N        NH3L    -0.300000       14.0070           0
     19657 MEMB     169      SAPE     HN1      HCL      0.330000       1.00800           0
     19658 MEMB     169      SAPE     HN2      HCL      0.330000       1.00800           0
     19659 MEMB     169      SAPE     HN3      HCL      0.330000       1.00800           0
     19660 MEMB     169      SAPE     C12      CTL2     0.130000       12.0110           0
     19661 MEMB     169      SAPE     H12A     HAL2     0.900000E-01   1.00800           0
     19662 MEMB     169      SAPE     H12B     HAL2     0.900000E-01   1.00800           0
     19663 MEMB     169      SAPE     C11      CTL2    -0.800000E-01   12.0110           0
     19664 MEMB     169      SAPE     H11A     HAL2     0.900000E-01   1.00800           0
     19665 MEMB     169      SAPE     H11B     HAL2     0.900000E-01   1.00800           0
     19666 MEMB     169      SAPE     P        PL        1.50000       30.9740           0
     19667 MEMB     169      SAPE     O13      O2L     -0.780000       15.9994           0
     19668 MEMB     169      SAPE     O14      O2L     -0.780000       15.9994           0
     19669 MEMB     169      SAPE     O12      OSLP    -0.570000       15.9994           0
     19670 MEMB     169      SAPE     O11      OSLP    -0.570000       15.9994           0
     19671 MEMB     169      SAPE     C1       CTL2    -0.800000E-01   12.0110           0
     19672 MEMB     169      SAPE     HA       HAL2     0.900000E-01   1.00800           0
     19673 MEMB     169      SAPE     HB       HAL2     0.900000E-01   1.00800           0
     19674 MEMB     169      SAPE     C2       CTL1     0.170000       12.0110           0
     19675 MEMB     169      SAPE     HS       HAL1     0.900000E-01   1.00800           0
     19676 MEMB     169      SAPE     O21      OSL     -0.490000       15.9994           0
     19677 MEMB     169      SAPE     C21      CL       0.900000       12.0110           0
     19678 MEMB     169      SAPE     O22      OBL     -0.630000       15.9994           0
     19679 MEMB     169      SAPE     C22      CTL2    -0.220000       12.0110           0
     19680 MEMB     169      SAPE     H2R      HAL2     0.900000E-01   1.00800           0
     19681 MEMB     169      SAPE     H2S      HAL2     0.900000E-01   1.00800           0
     19682 MEMB     169      SAPE     C3       CTL2     0.800000E-01   12.0110           0
     19683 MEMB     169      SAPE     HX       HAL2     0.900000E-01   1.00800           0
     19684 MEMB     169      SAPE     HY       HAL2     0.900000E-01   1.00800           0
     19685 MEMB     169      SAPE     O31      OSL     -0.490000       15.9994           0
     19686 MEMB     169      SAPE     C31      CL       0.900000       12.0110           0
     19687 MEMB     169      SAPE     O32      OBL     -0.630000       15.9994           0
     19688 MEMB     169      SAPE     C32      CTL2    -0.220000       12.0110           0
     19689 MEMB     169      SAPE     H2X      HAL2     0.900000E-01   1.00800           0
     19690 MEMB     169      SAPE     H2Y      HAL2     0.900000E-01   1.00800           0
     19691 MEMB     169      SAPE     C23      CTL2    -0.180000       12.0110           0
     19692 MEMB     169      SAPE     H3R      HAL2     0.900000E-01   1.00800           0
     19693 MEMB     169      SAPE     H3S      HAL2     0.900000E-01   1.00800           0
     19694 MEMB     169      SAPE     C24      CTL2    -0.180000       12.0110           0
     19695 MEMB     169      SAPE     H4R      HAL2     0.900000E-01   1.00800           0
     19696 MEMB     169      SAPE     H4S      HAL2     0.900000E-01   1.00800           0
     19697 MEMB     169      SAPE     C25      CEL1    -0.150000       12.0110           0
     19698 MEMB     169      SAPE     H5R      HEL1     0.150000       1.00800           0
     19699 MEMB     169      SAPE     C26      CEL1    -0.150000       12.0110           0
     19700 MEMB     169      SAPE     H6R      HEL1     0.150000       1.00800           0
     19701 MEMB     169      SAPE     C27      CTL2    -0.180000       12.0110           0
     19702 MEMB     169      SAPE     H7R      HAL2     0.900000E-01   1.00800           0
     19703 MEMB     169      SAPE     H7S      HAL2     0.900000E-01   1.00800           0
     19704 MEMB     169      SAPE     C28      CEL1    -0.150000       12.0110           0
     19705 MEMB     169      SAPE     H8R      HEL1     0.150000       1.00800           0
     19706 MEMB     169      SAPE     C29      CEL1    -0.150000       12.0110           0
     19707 MEMB     169      SAPE     H9R      HEL1     0.150000       1.00800           0
     19708 MEMB     169      SAPE     C210     CTL2    -0.180000       12.0110           0
     19709 MEMB     169      SAPE     H10R     HAL2     0.900000E-01   1.00800           0
     19710 MEMB     169      SAPE     H10S     HAL2     0.900000E-01   1.00800           0
     19711 MEMB     169      SAPE     C211     CEL1    -0.150000       12.0110           0
     19712 MEMB     169      SAPE     H11R     HEL1     0.150000       1.00800           0
     19713 MEMB     169      SAPE     C212     CEL1    -0.150000       12.0110           0
     19714 MEMB     169      SAPE     H12R     HEL1     0.150000       1.00800           0
     19715 MEMB     169      SAPE     C213     CTL2    -0.180000       12.0110           0
     19716 MEMB     169      SAPE     H13R     HAL2     0.900000E-01   1.00800           0
     19717 MEMB     169      SAPE     H13S     HAL2     0.900000E-01   1.00800           0
     19718 MEMB     169      SAPE     C214     CEL1    -0.150000       12.0110           0
     19719 MEMB     169      SAPE     H14R     HEL1     0.150000       1.00800           0
     19720 MEMB     169      SAPE     C215     CEL1    -0.150000       12.0110           0
     19721 MEMB     169      SAPE     H15R     HEL1     0.150000       1.00800           0
     19722 MEMB     169      SAPE     C216     CTL2    -0.180000       12.0110           0
     19723 MEMB     169      SAPE     H16R     HAL2     0.900000E-01   1.00800           0
     19724 MEMB     169      SAPE     H16S     HAL2     0.900000E-01   1.00800           0
     19725 MEMB     169      SAPE     C217     CTL2    -0.180000       12.0110           0
     19726 MEMB     169      SAPE     H17R     HAL2     0.900000E-01   1.00800           0
     19727 MEMB     169      SAPE     H17S     HAL2     0.900000E-01   1.00800           0
     19728 MEMB     169      SAPE     C218     CTL2    -0.180000       12.0110           0
     19729 MEMB     169      SAPE     H18R     HAL2     0.900000E-01   1.00800           0
     19730 MEMB     169      SAPE     H18S     HAL2     0.900000E-01   1.00800           0
     19731 MEMB     169      SAPE     C219     CTL2    -0.180000       12.0110           0
     19732 MEMB     169      SAPE     H19R     HAL2     0.900000E-01   1.00800           0
     19733 MEMB     169      SAPE     H19S     HAL2     0.900000E-01   1.00800           0
     19734 MEMB     169      SAPE     C220     CTL3    -0.270000       12.0110           0
     19735 MEMB     169      SAPE     H20R     HAL3     0.900000E-01   1.00800           0
     19736 MEMB     169      SAPE     H20S     HAL3     0.900000E-01   1.00800           0
     19737 MEMB     169      SAPE     H20T     HAL3     0.900000E-01   1.00800           0
     19738 MEMB     169      SAPE     C33      CTL2    -0.180000       12.0110           0
     19739 MEMB     169      SAPE     H3X      HAL2     0.900000E-01   1.00800           0
     19740 MEMB     169      SAPE     H3Y      HAL2     0.900000E-01   1.00800           0
     19741 MEMB     169      SAPE     C34      CTL2    -0.180000       12.0110           0
     19742 MEMB     169      SAPE     H4X      HAL2     0.900000E-01   1.00800           0
     19743 MEMB     169      SAPE     H4Y      HAL2     0.900000E-01   1.00800           0
     19744 MEMB     169      SAPE     C35      CTL2    -0.180000       12.0110           0
     19745 MEMB     169      SAPE     H5X      HAL2     0.900000E-01   1.00800           0
     19746 MEMB     169      SAPE     H5Y      HAL2     0.900000E-01   1.00800           0
     19747 MEMB     169      SAPE     C36      CTL2    -0.180000       12.0110           0
     19748 MEMB     169      SAPE     H6X      HAL2     0.900000E-01   1.00800           0
     19749 MEMB     169      SAPE     H6Y      HAL2     0.900000E-01   1.00800           0
     19750 MEMB     169      SAPE     C37      CTL2    -0.180000       12.0110           0
     19751 MEMB     169      SAPE     H7X      HAL2     0.900000E-01   1.00800           0
     19752 MEMB     169      SAPE     H7Y      HAL2     0.900000E-01   1.00800           0
     19753 MEMB     169      SAPE     C38      CTL2    -0.180000       12.0110           0
     19754 MEMB     169      SAPE     H8X      HAL2     0.900000E-01   1.00800           0
     19755 MEMB     169      SAPE     H8Y      HAL2     0.900000E-01   1.00800           0
     19756 MEMB     169      SAPE     C39      CTL2    -0.180000       12.0110           0
     19757 MEMB     169      SAPE     H9X      HAL2     0.900000E-01   1.00800           0
     19758 MEMB     169      SAPE     H9Y      HAL2     0.900000E-01   1.00800           0
     19759 MEMB     169      SAPE     C310     CTL2    -0.180000       12.0110           0
     19760 MEMB     169      SAPE     H10X     HAL2     0.900000E-01   1.00800           0
     19761 MEMB     169      SAPE     H10Y     HAL2     0.900000E-01   1.00800           0
     19762 MEMB     169      SAPE     C311     CTL2    -0.180000       12.0110           0
     19763 MEMB     169      SAPE     H11X     HAL2     0.900000E-01   1.00800           0
     19764 MEMB     169      SAPE     H11Y     HAL2     0.900000E-01   1.00800           0
     19765 MEMB     169      SAPE     C312     CTL2    -0.180000       12.0110           0
     19766 MEMB     169      SAPE     H12X     HAL2     0.900000E-01   1.00800           0
     19767 MEMB     169      SAPE     H12Y     HAL2     0.900000E-01   1.00800           0
     19768 MEMB     169      SAPE     C313     CTL2    -0.180000       12.0110           0
     19769 MEMB     169      SAPE     H13X     HAL2     0.900000E-01   1.00800           0
     19770 MEMB     169      SAPE     H13Y     HAL2     0.900000E-01   1.00800           0
     19771 MEMB     169      SAPE     C314     CTL2    -0.180000       12.0110           0
     19772 MEMB     169      SAPE     H14X     HAL2     0.900000E-01   1.00800           0
     19773 MEMB     169      SAPE     H14Y     HAL2     0.900000E-01   1.00800           0
     19774 MEMB     169      SAPE     C315     CTL2    -0.180000       12.0110           0
     19775 MEMB     169      SAPE     H15X     HAL2     0.900000E-01   1.00800           0
     19776 MEMB     169      SAPE     H15Y     HAL2     0.900000E-01   1.00800           0
     19777 MEMB     169      SAPE     C316     CTL2    -0.180000       12.0110           0
     19778 MEMB     169      SAPE     H16X     HAL2     0.900000E-01   1.00800           0
     19779 MEMB     169      SAPE     H16Y     HAL2     0.900000E-01   1.00800           0
     19780 MEMB     169      SAPE     C317     CTL2    -0.180000       12.0110           0
     19781 MEMB     169      SAPE     H17X     HAL2     0.900000E-01   1.00800           0
     19782 MEMB     169      SAPE     H17Y     HAL2     0.900000E-01   1.00800           0
     19783 MEMB     169      SAPE     C318     CTL3    -0.270000       12.0110           0
     19784 MEMB     169      SAPE     H18X     HAL3     0.900000E-01   1.00800           0
     19785 MEMB     169      SAPE     H18Y     HAL3     0.900000E-01   1.00800           0
     19786 MEMB     169      SAPE     H18Z     HAL3     0.900000E-01   1.00800           0
     19787 MEMB     170      CHL1     C3       CRL1     0.140000       12.0110           0
     19788 MEMB     170      CHL1     H3       HGA1     0.900000E-01   1.00800           0
     19789 MEMB     170      CHL1     O3       OHL     -0.660000       15.9994           0
     19790 MEMB     170      CHL1     H3'      HOL      0.430000       1.00800           0
     19791 MEMB     170      CHL1     C4       CRL2    -0.180000       12.0110           0
     19792 MEMB     170      CHL1     H4A      HGA2     0.900000E-01   1.00800           0
     19793 MEMB     170      CHL1     H4B      HGA2     0.900000E-01   1.00800           0
     19794 MEMB     170      CHL1     C5       CEL1      0.00000       12.0110           0
     19795 MEMB     170      CHL1     C6       CEL1    -0.150000       12.0110           0
     19796 MEMB     170      CHL1     H6       HEL1     0.150000       1.00800           0
     19797 MEMB     170      CHL1     C7       CRL2    -0.180000       12.0110           0
     19798 MEMB     170      CHL1     H7A      HGA2     0.900000E-01   1.00800           0
     19799 MEMB     170      CHL1     H7B      HGA2     0.900000E-01   1.00800           0
     19800 MEMB     170      CHL1     C8       CRL1    -0.900000E-01   12.0110           0
     19801 MEMB     170      CHL1     H8       HGA1     0.900000E-01   1.00800           0
     19802 MEMB     170      CHL1     C14      CRL1    -0.900000E-01   12.0110           0
     19803 MEMB     170      CHL1     H14      HGA1     0.900000E-01   1.00800           0
     19804 MEMB     170      CHL1     C15      CRL2    -0.180000       12.0110           0
     19805 MEMB     170      CHL1     H15A     HGA2     0.900000E-01   1.00800           0
     19806 MEMB     170      CHL1     H15B     HGA2     0.900000E-01   1.00800           0
     19807 MEMB     170      CHL1     C16      CRL2    -0.180000       12.0110           0
     19808 MEMB     170      CHL1     H16A     HGA2     0.900000E-01   1.00800           0
     19809 MEMB     170      CHL1     H16B     HGA2     0.900000E-01   1.00800           0
     19810 MEMB     170      CHL1     C17      CRL1    -0.900000E-01   12.0110           0
     19811 MEMB     170      CHL1     H17      HGA1     0.900000E-01   1.00800           0
     19812 MEMB     170      CHL1     C13      CRL1      0.00000       12.0110           0
     19813 MEMB     170      CHL1     C18      CTL3    -0.270000       12.0110           0
     19814 MEMB     170      CHL1     H18A     HAL3     0.900000E-01   1.00800           0
     19815 MEMB     170      CHL1     H18B     HAL3     0.900000E-01   1.00800           0
     19816 MEMB     170      CHL1     H18C     HAL3     0.900000E-01   1.00800           0
     19817 MEMB     170      CHL1     C12      CRL2    -0.180000       12.0110           0
     19818 MEMB     170      CHL1     H12A     HGA2     0.900000E-01   1.00800           0
     19819 MEMB     170      CHL1     H12B     HGA2     0.900000E-01   1.00800           0
     19820 MEMB     170      CHL1     C11      CRL2    -0.180000       12.0110           0
     19821 MEMB     170      CHL1     H11A     HGA2     0.900000E-01   1.00800           0
     19822 MEMB     170      CHL1     H11B     HGA2     0.900000E-01   1.00800           0
     19823 MEMB     170      CHL1     C9       CRL1    -0.900000E-01   12.0110           0
     19824 MEMB     170      CHL1     H9       HGA1     0.900000E-01   1.00800           0
     19825 MEMB     170      CHL1     C10      CRL1      0.00000       12.0110           0
     19826 MEMB     170      CHL1     C19      CTL3    -0.270000       12.0110           0
     19827 MEMB     170      CHL1     H19A     HAL3     0.900000E-01   1.00800           0
     19828 MEMB     170      CHL1     H19B     HAL3     0.900000E-01   1.00800           0
     19829 MEMB     170      CHL1     H19C     HAL3     0.900000E-01   1.00800           0
     19830 MEMB     170      CHL1     C1       CRL2    -0.180000       12.0110           0
     19831 MEMB     170      CHL1     H1A      HGA2     0.900000E-01   1.00800           0
     19832 MEMB     170      CHL1     H1B      HGA2     0.900000E-01   1.00800           0
     19833 MEMB     170      CHL1     C2       CRL2    -0.180000       12.0110           0
     19834 MEMB     170      CHL1     H2A      HGA2     0.900000E-01   1.00800           0
     19835 MEMB     170      CHL1     H2B      HGA2     0.900000E-01   1.00800           0
     19836 MEMB     170      CHL1     C20      CTL1    -0.900000E-01   12.0110           0
     19837 MEMB     170      CHL1     H20      HAL1     0.900000E-01   1.00800           0
     19838 MEMB     170      CHL1     C21      CTL3    -0.270000       12.0110           0
     19839 MEMB     170      CHL1     H21A     HAL3     0.900000E-01   1.00800           0
     19840 MEMB     170      CHL1     H21B     HAL3     0.900000E-01   1.00800           0
     19841 MEMB     170      CHL1     H21C     HAL3     0.900000E-01   1.00800           0
     19842 MEMB     170      CHL1     C22      CTL2    -0.180000       12.0110           0
     19843 MEMB     170      CHL1     H22A     HAL2     0.900000E-01   1.00800           0
     19844 MEMB     170      CHL1     H22B     HAL2     0.900000E-01   1.00800           0
     19845 MEMB     170      CHL1     C23      CTL2    -0.180000       12.0110           0
     19846 MEMB     170      CHL1     H23A     HAL2     0.900000E-01   1.00800           0
     19847 MEMB     170      CHL1     H23B     HAL2     0.900000E-01   1.00800           0
     19848 MEMB     170      CHL1     C24      CTL2    -0.180000       12.0110           0
     19849 MEMB     170      CHL1     H24A     HAL2     0.900000E-01   1.00800           0
     19850 MEMB     170      CHL1     H24B     HAL2     0.900000E-01   1.00800           0
     19851 MEMB     170      CHL1     C25      CTL1    -0.900000E-01   12.0110           0
     19852 MEMB     170      CHL1     H25      HAL1     0.900000E-01   1.00800           0
     19853 MEMB     170      CHL1     C26      CTL3    -0.270000       12.0110           0
     19854 MEMB     170      CHL1     H26A     HAL3     0.900000E-01   1.00800           0
     19855 MEMB     170      CHL1     H26B     HAL3     0.900000E-01   1.00800           0
     19856 MEMB     170      CHL1     H26C     HAL3     0.900000E-01   1.00800           0
     19857 MEMB     170      CHL1     C27      CTL3    -0.270000       12.0110           0
     19858 MEMB     170      CHL1     H27A     HAL3     0.900000E-01   1.00800           0
     19859 MEMB     170      CHL1     H27B     HAL3     0.900000E-01   1.00800           0
     19860 MEMB     170      CHL1     H27C     HAL3     0.900000E-01   1.00800           0
     19861 MEMB     171      CHL1     C3       CRL1     0.140000       12.0110           0
     19862 MEMB     171      CHL1     H3       HGA1     0.900000E-01   1.00800           0
     19863 MEMB     171      CHL1     O3       OHL     -0.660000       15.9994           0
     19864 MEMB     171      CHL1     H3'      HOL      0.430000       1.00800           0
     19865 MEMB     171      CHL1     C4       CRL2    -0.180000       12.0110           0
     19866 MEMB     171      CHL1     H4A      HGA2     0.900000E-01   1.00800           0
     19867 MEMB     171      CHL1     H4B      HGA2     0.900000E-01   1.00800           0
     19868 MEMB     171      CHL1     C5       CEL1      0.00000       12.0110           0
     19869 MEMB     171      CHL1     C6       CEL1    -0.150000       12.0110           0
     19870 MEMB     171      CHL1     H6       HEL1     0.150000       1.00800           0
     19871 MEMB     171      CHL1     C7       CRL2    -0.180000       12.0110           0
     19872 MEMB     171      CHL1     H7A      HGA2     0.900000E-01   1.00800           0
     19873 MEMB     171      CHL1     H7B      HGA2     0.900000E-01   1.00800           0
     19874 MEMB     171      CHL1     C8       CRL1    -0.900000E-01   12.0110           0
     19875 MEMB     171      CHL1     H8       HGA1     0.900000E-01   1.00800           0
     19876 MEMB     171      CHL1     C14      CRL1    -0.900000E-01   12.0110           0
     19877 MEMB     171      CHL1     H14      HGA1     0.900000E-01   1.00800           0
     19878 MEMB     171      CHL1     C15      CRL2    -0.180000       12.0110           0
     19879 MEMB     171      CHL1     H15A     HGA2     0.900000E-01   1.00800           0
     19880 MEMB     171      CHL1     H15B     HGA2     0.900000E-01   1.00800           0
     19881 MEMB     171      CHL1     C16      CRL2    -0.180000       12.0110           0
     19882 MEMB     171      CHL1     H16A     HGA2     0.900000E-01   1.00800           0
     19883 MEMB     171      CHL1     H16B     HGA2     0.900000E-01   1.00800           0
     19884 MEMB     171      CHL1     C17      CRL1    -0.900000E-01   12.0110           0
     19885 MEMB     171      CHL1     H17      HGA1     0.900000E-01   1.00800           0
     19886 MEMB     171      CHL1     C13      CRL1      0.00000       12.0110           0
     19887 MEMB     171      CHL1     C18      CTL3    -0.270000       12.0110           0
     19888 MEMB     171      CHL1     H18A     HAL3     0.900000E-01   1.00800           0
     19889 MEMB     171      CHL1     H18B     HAL3     0.900000E-01   1.00800           0
     19890 MEMB     171      CHL1     H18C     HAL3     0.900000E-01   1.00800           0
     19891 MEMB     171      CHL1     C12      CRL2    -0.180000       12.0110           0
     19892 MEMB     171      CHL1     H12A     HGA2     0.900000E-01   1.00800           0
     19893 MEMB     171      CHL1     H12B     HGA2     0.900000E-01   1.00800           0
     19894 MEMB     171      CHL1     C11      CRL2    -0.180000       12.0110           0
     19895 MEMB     171      CHL1     H11A     HGA2     0.900000E-01   1.00800           0
     19896 MEMB     171      CHL1     H11B     HGA2     0.900000E-01   1.00800           0
     19897 MEMB     171      CHL1     C9       CRL1    -0.900000E-01   12.0110           0
     19898 MEMB     171      CHL1     H9       HGA1     0.900000E-01   1.00800           0
     19899 MEMB     171      CHL1     C10      CRL1      0.00000       12.0110           0
     19900 MEMB     171      CHL1     C19      CTL3    -0.270000       12.0110           0
     19901 MEMB     171      CHL1     H19A     HAL3     0.900000E-01   1.00800           0
     19902 MEMB     171      CHL1     H19B     HAL3     0.900000E-01   1.00800           0
     19903 MEMB     171      CHL1     H19C     HAL3     0.900000E-01   1.00800           0
     19904 MEMB     171      CHL1     C1       CRL2    -0.180000       12.0110           0
     19905 MEMB     171      CHL1     H1A      HGA2     0.900000E-01   1.00800           0
     19906 MEMB     171      CHL1     H1B      HGA2     0.900000E-01   1.00800           0
     19907 MEMB     171      CHL1     C2       CRL2    -0.180000       12.0110           0
     19908 MEMB     171      CHL1     H2A      HGA2     0.900000E-01   1.00800           0
     19909 MEMB     171      CHL1     H2B      HGA2     0.900000E-01   1.00800           0
     19910 MEMB     171      CHL1     C20      CTL1    -0.900000E-01   12.0110           0
     19911 MEMB     171      CHL1     H20      HAL1     0.900000E-01   1.00800           0
     19912 MEMB     171      CHL1     C21      CTL3    -0.270000       12.0110           0
     19913 MEMB     171      CHL1     H21A     HAL3     0.900000E-01   1.00800           0
     19914 MEMB     171      CHL1     H21B     HAL3     0.900000E-01   1.00800           0
     19915 MEMB     171      CHL1     H21C     HAL3     0.900000E-01   1.00800           0
     19916 MEMB     171      CHL1     C22      CTL2    -0.180000       12.0110           0
     19917 MEMB     171      CHL1     H22A     HAL2     0.900000E-01   1.00800           0
     19918 MEMB     171      CHL1     H22B     HAL2     0.900000E-01   1.00800           0
     19919 MEMB     171      CHL1     C23      CTL2    -0.180000       12.0110           0
     19920 MEMB     171      CHL1     H23A     HAL2     0.900000E-01   1.00800           0
     19921 MEMB     171      CHL1     H23B     HAL2     0.900000E-01   1.00800           0
     19922 MEMB     171      CHL1     C24      CTL2    -0.180000       12.0110           0
     19923 MEMB     171      CHL1     H24A     HAL2     0.900000E-01   1.00800           0
     19924 MEMB     171      CHL1     H24B     HAL2     0.900000E-01   1.00800           0
     19925 MEMB     171      CHL1     C25      CTL1    -0.900000E-01   12.0110           0
     19926 MEMB     171      CHL1     H25      HAL1     0.900000E-01   1.00800           0
     19927 MEMB     171      CHL1     C26      CTL3    -0.270000       12.0110           0
     19928 MEMB     171      CHL1     H26A     HAL3     0.900000E-01   1.00800           0
     19929 MEMB     171      CHL1     H26B     HAL3     0.900000E-01   1.00800           0
     19930 MEMB     171      CHL1     H26C     HAL3     0.900000E-01   1.00800           0
     19931 MEMB     171      CHL1     C27      CTL3    -0.270000       12.0110           0
     19932 MEMB     171      CHL1     H27A     HAL3     0.900000E-01   1.00800           0
     19933 MEMB     171      CHL1     H27B     HAL3     0.900000E-01   1.00800           0
     19934 MEMB     171      CHL1     H27C     HAL3     0.900000E-01   1.00800           0
     19935 MEMB     172      SLPC     N        NTL     -0.600000       14.0070           0
     19936 MEMB     172      SLPC     C13      CTL5    -0.350000       12.0110           0
     19937 MEMB     172      SLPC     H13A     HL       0.250000       1.00800           0
     19938 MEMB     172      SLPC     H13B     HL       0.250000       1.00800           0
     19939 MEMB     172      SLPC     H13C     HL       0.250000       1.00800           0
     19940 MEMB     172      SLPC     C14      CTL5    -0.350000       12.0110           0
     19941 MEMB     172      SLPC     H14A     HL       0.250000       1.00800           0
     19942 MEMB     172      SLPC     H14B     HL       0.250000       1.00800           0
     19943 MEMB     172      SLPC     H14C     HL       0.250000       1.00800           0
     19944 MEMB     172      SLPC     C15      CTL5    -0.350000       12.0110           0
     19945 MEMB     172      SLPC     H15A     HL       0.250000       1.00800           0
     19946 MEMB     172      SLPC     H15B     HL       0.250000       1.00800           0
     19947 MEMB     172      SLPC     H15C     HL       0.250000       1.00800           0
     19948 MEMB     172      SLPC     C12      CTL2    -0.100000       12.0110           0
     19949 MEMB     172      SLPC     H12A     HL       0.250000       1.00800           0
     19950 MEMB     172      SLPC     H12B     HL       0.250000       1.00800           0
     19951 MEMB     172      SLPC     C11      CTL2    -0.800000E-01   12.0110           0
     19952 MEMB     172      SLPC     H11A     HAL2     0.900000E-01   1.00800           0
     19953 MEMB     172      SLPC     H11B     HAL2     0.900000E-01   1.00800           0
     19954 MEMB     172      SLPC     P        PL        1.50000       30.9740           0
     19955 MEMB     172      SLPC     O13      O2L     -0.780000       15.9994           0
     19956 MEMB     172      SLPC     O14      O2L     -0.780000       15.9994           0
     19957 MEMB     172      SLPC     O12      OSLP    -0.570000       15.9994           0
     19958 MEMB     172      SLPC     O11      OSLP    -0.570000       15.9994           0
     19959 MEMB     172      SLPC     C1       CTL2    -0.800000E-01   12.0110           0
     19960 MEMB     172      SLPC     HA       HAL2     0.900000E-01   1.00800           0
     19961 MEMB     172      SLPC     HB       HAL2     0.900000E-01   1.00800           0
     19962 MEMB     172      SLPC     C2       CTL1     0.170000       12.0110           0
     19963 MEMB     172      SLPC     HS       HAL1     0.900000E-01   1.00800           0
     19964 MEMB     172      SLPC     O21      OSL     -0.490000       15.9994           0
     19965 MEMB     172      SLPC     C21      CL       0.900000       12.0110           0
     19966 MEMB     172      SLPC     O22      OBL     -0.630000       15.9994           0
     19967 MEMB     172      SLPC     C22      CTL2    -0.220000       12.0110           0
     19968 MEMB     172      SLPC     H2R      HAL2     0.900000E-01   1.00800           0
     19969 MEMB     172      SLPC     H2S      HAL2     0.900000E-01   1.00800           0
     19970 MEMB     172      SLPC     C3       CTL2     0.800000E-01   12.0110           0
     19971 MEMB     172      SLPC     HX       HAL2     0.900000E-01   1.00800           0
     19972 MEMB     172      SLPC     HY       HAL2     0.900000E-01   1.00800           0
     19973 MEMB     172      SLPC     O31      OSL     -0.490000       15.9994           0
     19974 MEMB     172      SLPC     C31      CL       0.900000       12.0110           0
     19975 MEMB     172      SLPC     O32      OBL     -0.630000       15.9994           0
     19976 MEMB     172      SLPC     C32      CTL2    -0.220000       12.0110           0
     19977 MEMB     172      SLPC     H2X      HAL2     0.900000E-01   1.00800           0
     19978 MEMB     172      SLPC     H2Y      HAL2     0.900000E-01   1.00800           0
     19979 MEMB     172      SLPC     C23      CTL2    -0.180000       12.0110           0
     19980 MEMB     172      SLPC     H3R      HAL2     0.900000E-01   1.00800           0
     19981 MEMB     172      SLPC     H3S      HAL2     0.900000E-01   1.00800           0
     19982 MEMB     172      SLPC     C24      CTL2    -0.180000       12.0110           0
     19983 MEMB     172      SLPC     H4R      HAL2     0.900000E-01   1.00800           0
     19984 MEMB     172      SLPC     H4S      HAL2     0.900000E-01   1.00800           0
     19985 MEMB     172      SLPC     C25      CTL2    -0.180000       12.0110           0
     19986 MEMB     172      SLPC     H5R      HAL2     0.900000E-01   1.00800           0
     19987 MEMB     172      SLPC     H5S      HAL2     0.900000E-01   1.00800           0
     19988 MEMB     172      SLPC     C26      CTL2    -0.180000       12.0110           0
     19989 MEMB     172      SLPC     H6R      HAL2     0.900000E-01   1.00800           0
     19990 MEMB     172      SLPC     H6S      HAL2     0.900000E-01   1.00800           0
     19991 MEMB     172      SLPC     C27      CTL2    -0.180000       12.0110           0
     19992 MEMB     172      SLPC     H7R      HAL2     0.900000E-01   1.00800           0
     19993 MEMB     172      SLPC     H7S      HAL2     0.900000E-01   1.00800           0
     19994 MEMB     172      SLPC     C28      CTL2    -0.180000       12.0110           0
     19995 MEMB     172      SLPC     H8R      HAL2     0.900000E-01   1.00800           0
     19996 MEMB     172      SLPC     H8S      HAL2     0.900000E-01   1.00800           0
     19997 MEMB     172      SLPC     C29      CEL1    -0.150000       12.0110           0
     19998 MEMB     172      SLPC     H9R      HEL1     0.150000       1.00800           0
     19999 MEMB     172      SLPC     C210     CEL1    -0.150000       12.0110           0
     20000 MEMB     172      SLPC     H10R     HEL1     0.150000       1.00800           0
     20001 MEMB     172      SLPC     C211     CTL2    -0.180000       12.0110           0
     20002 MEMB     172      SLPC     H11R     HAL2     0.900000E-01   1.00800           0
     20003 MEMB     172      SLPC     H11S     HAL2     0.900000E-01   1.00800           0
     20004 MEMB     172      SLPC     C212     CEL1    -0.150000       12.0110           0
     20005 MEMB     172      SLPC     H12R     HEL1     0.150000       1.00800           0
     20006 MEMB     172      SLPC     C213     CEL1    -0.150000       12.0110           0
     20007 MEMB     172      SLPC     H13R     HEL1     0.150000       1.00800           0
     20008 MEMB     172      SLPC     C214     CTL2    -0.180000       12.0110           0
     20009 MEMB     172      SLPC     H14R     HAL2     0.900000E-01   1.00800           0
     20010 MEMB     172      SLPC     H14S     HAL2     0.900000E-01   1.00800           0
     20011 MEMB     172      SLPC     C215     CTL2    -0.180000       12.0110           0
     20012 MEMB     172      SLPC     H15R     HAL2     0.900000E-01   1.00800           0
     20013 MEMB     172      SLPC     H15S     HAL2     0.900000E-01   1.00800           0
     20014 MEMB     172      SLPC     C216     CTL2    -0.180000       12.0110           0
     20015 MEMB     172      SLPC     H16R     HAL2     0.900000E-01   1.00800           0
     20016 MEMB     172      SLPC     H16S     HAL2     0.900000E-01   1.00800           0
     20017 MEMB     172      SLPC     C217     CTL2    -0.180000       12.0110           0
     20018 MEMB     172      SLPC     H17R     HAL2     0.900000E-01   1.00800           0
     20019 MEMB     172      SLPC     H17S     HAL2     0.900000E-01   1.00800           0
     20020 MEMB     172      SLPC     C218     CTL3    -0.270000       12.0110           0
     20021 MEMB     172      SLPC     H18R     HAL3     0.900000E-01   1.00800           0
     20022 MEMB     172      SLPC     H18S     HAL3     0.900000E-01   1.00800           0
     20023 MEMB     172      SLPC     H18T     HAL3     0.900000E-01   1.00800           0
     20024 MEMB     172      SLPC     C33      CTL2    -0.180000       12.0110           0
     20025 MEMB     172      SLPC     H3X      HAL2     0.900000E-01   1.00800           0
     20026 MEMB     172      SLPC     H3Y      HAL2     0.900000E-01   1.00800           0
     20027 MEMB     172      SLPC     C34      CTL2    -0.180000       12.0110           0
     20028 MEMB     172      SLPC     H4X      HAL2     0.900000E-01   1.00800           0
     20029 MEMB     172      SLPC     H4Y      HAL2     0.900000E-01   1.00800           0
     20030 MEMB     172      SLPC     C35      CTL2    -0.180000       12.0110           0
     20031 MEMB     172      SLPC     H5X      HAL2     0.900000E-01   1.00800           0
     20032 MEMB     172      SLPC     H5Y      HAL2     0.900000E-01   1.00800           0
     20033 MEMB     172      SLPC     C36      CTL2    -0.180000       12.0110           0
     20034 MEMB     172      SLPC     H6X      HAL2     0.900000E-01   1.00800           0
     20035 MEMB     172      SLPC     H6Y      HAL2     0.900000E-01   1.00800           0
     20036 MEMB     172      SLPC     C37      CTL2    -0.180000       12.0110           0
     20037 MEMB     172      SLPC     H7X      HAL2     0.900000E-01   1.00800           0
     20038 MEMB     172      SLPC     H7Y      HAL2     0.900000E-01   1.00800           0
     20039 MEMB     172      SLPC     C38      CTL2    -0.180000       12.0110           0
     20040 MEMB     172      SLPC     H8X      HAL2     0.900000E-01   1.00800           0
     20041 MEMB     172      SLPC     H8Y      HAL2     0.900000E-01   1.00800           0
     20042 MEMB     172      SLPC     C39      CTL2    -0.180000       12.0110           0
     20043 MEMB     172      SLPC     H9X      HAL2     0.900000E-01   1.00800           0
     20044 MEMB     172      SLPC     H9Y      HAL2     0.900000E-01   1.00800           0
     20045 MEMB     172      SLPC     C310     CTL2    -0.180000       12.0110           0
     20046 MEMB     172      SLPC     H10X     HAL2     0.900000E-01   1.00800           0
     20047 MEMB     172      SLPC     H10Y     HAL2     0.900000E-01   1.00800           0
     20048 MEMB     172      SLPC     C311     CTL2    -0.180000       12.0110           0
     20049 MEMB     172      SLPC     H11X     HAL2     0.900000E-01   1.00800           0
     20050 MEMB     172      SLPC     H11Y     HAL2     0.900000E-01   1.00800           0
     20051 MEMB     172      SLPC     C312     CTL2    -0.180000       12.0110           0
     20052 MEMB     172      SLPC     H12X     HAL2     0.900000E-01   1.00800           0
     20053 MEMB     172      SLPC     H12Y     HAL2     0.900000E-01   1.00800           0
     20054 MEMB     172      SLPC     C313     CTL2    -0.180000       12.0110           0
     20055 MEMB     172      SLPC     H13X     HAL2     0.900000E-01   1.00800           0
     20056 MEMB     172      SLPC     H13Y     HAL2     0.900000E-01   1.00800           0
     20057 MEMB     172      SLPC     C314     CTL2    -0.180000       12.0110           0
     20058 MEMB     172      SLPC     H14X     HAL2     0.900000E-01   1.00800           0
     20059 MEMB     172      SLPC     H14Y     HAL2     0.900000E-01   1.00800           0
     20060 MEMB     172      SLPC     C315     CTL2    -0.180000       12.0110           0
     20061 MEMB     172      SLPC     H15X     HAL2     0.900000E-01   1.00800           0
     20062 MEMB     172      SLPC     H15Y     HAL2     0.900000E-01   1.00800           0
     20063 MEMB     172      SLPC     C316     CTL2    -0.180000       12.0110           0
     20064 MEMB     172      SLPC     H16X     HAL2     0.900000E-01   1.00800           0
     20065 MEMB     172      SLPC     H16Y     HAL2     0.900000E-01   1.00800           0
     20066 MEMB     172      SLPC     C317     CTL2    -0.180000       12.0110           0
     20067 MEMB     172      SLPC     H17X     HAL2     0.900000E-01   1.00800           0
     20068 MEMB     172      SLPC     H17Y     HAL2     0.900000E-01   1.00800           0
     20069 MEMB     172      SLPC     C318     CTL3    -0.270000       12.0110           0
     20070 MEMB     172      SLPC     H18X     HAL3     0.900000E-01   1.00800           0
     20071 MEMB     172      SLPC     H18Y     HAL3     0.900000E-01   1.00800           0
     20072 MEMB     172      SLPC     H18Z     HAL3     0.900000E-01   1.00800           0
     20073 MEMB     173      CHL1     C3       CRL1     0.140000       12.0110           0
     20074 MEMB     173      CHL1     H3       HGA1     0.900000E-01   1.00800           0
     20075 MEMB     173      CHL1     O3       OHL     -0.660000       15.9994           0
     20076 MEMB     173      CHL1     H3'      HOL      0.430000       1.00800           0
     20077 MEMB     173      CHL1     C4       CRL2    -0.180000       12.0110           0
     20078 MEMB     173      CHL1     H4A      HGA2     0.900000E-01   1.00800           0
     20079 MEMB     173      CHL1     H4B      HGA2     0.900000E-01   1.00800           0
     20080 MEMB     173      CHL1     C5       CEL1      0.00000       12.0110           0
     20081 MEMB     173      CHL1     C6       CEL1    -0.150000       12.0110           0
     20082 MEMB     173      CHL1     H6       HEL1     0.150000       1.00800           0
     20083 MEMB     173      CHL1     C7       CRL2    -0.180000       12.0110           0
     20084 MEMB     173      CHL1     H7A      HGA2     0.900000E-01   1.00800           0
     20085 MEMB     173      CHL1     H7B      HGA2     0.900000E-01   1.00800           0
     20086 MEMB     173      CHL1     C8       CRL1    -0.900000E-01   12.0110           0
     20087 MEMB     173      CHL1     H8       HGA1     0.900000E-01   1.00800           0
     20088 MEMB     173      CHL1     C14      CRL1    -0.900000E-01   12.0110           0
     20089 MEMB     173      CHL1     H14      HGA1     0.900000E-01   1.00800           0
     20090 MEMB     173      CHL1     C15      CRL2    -0.180000       12.0110           0
     20091 MEMB     173      CHL1     H15A     HGA2     0.900000E-01   1.00800           0
     20092 MEMB     173      CHL1     H15B     HGA2     0.900000E-01   1.00800           0
     20093 MEMB     173      CHL1     C16      CRL2    -0.180000       12.0110           0
     20094 MEMB     173      CHL1     H16A     HGA2     0.900000E-01   1.00800           0
     20095 MEMB     173      CHL1     H16B     HGA2     0.900000E-01   1.00800           0
     20096 MEMB     173      CHL1     C17      CRL1    -0.900000E-01   12.0110           0
     20097 MEMB     173      CHL1     H17      HGA1     0.900000E-01   1.00800           0
     20098 MEMB     173      CHL1     C13      CRL1      0.00000       12.0110           0
     20099 MEMB     173      CHL1     C18      CTL3    -0.270000       12.0110           0
     20100 MEMB     173      CHL1     H18A     HAL3     0.900000E-01   1.00800           0
     20101 MEMB     173      CHL1     H18B     HAL3     0.900000E-01   1.00800           0
     20102 MEMB     173      CHL1     H18C     HAL3     0.900000E-01   1.00800           0
     20103 MEMB     173      CHL1     C12      CRL2    -0.180000       12.0110           0
     20104 MEMB     173      CHL1     H12A     HGA2     0.900000E-01   1.00800           0
     20105 MEMB     173      CHL1     H12B     HGA2     0.900000E-01   1.00800           0
     20106 MEMB     173      CHL1     C11      CRL2    -0.180000       12.0110           0
     20107 MEMB     173      CHL1     H11A     HGA2     0.900000E-01   1.00800           0
     20108 MEMB     173      CHL1     H11B     HGA2     0.900000E-01   1.00800           0
     20109 MEMB     173      CHL1     C9       CRL1    -0.900000E-01   12.0110           0
     20110 MEMB     173      CHL1     H9       HGA1     0.900000E-01   1.00800           0
     20111 MEMB     173      CHL1     C10      CRL1      0.00000       12.0110           0
     20112 MEMB     173      CHL1     C19      CTL3    -0.270000       12.0110           0
     20113 MEMB     173      CHL1     H19A     HAL3     0.900000E-01   1.00800           0
     20114 MEMB     173      CHL1     H19B     HAL3     0.900000E-01   1.00800           0
     20115 MEMB     173      CHL1     H19C     HAL3     0.900000E-01   1.00800           0
     20116 MEMB     173      CHL1     C1       CRL2    -0.180000       12.0110           0
     20117 MEMB     173      CHL1     H1A      HGA2     0.900000E-01   1.00800           0
     20118 MEMB     173      CHL1     H1B      HGA2     0.900000E-01   1.00800           0
     20119 MEMB     173      CHL1     C2       CRL2    -0.180000       12.0110           0
     20120 MEMB     173      CHL1     H2A      HGA2     0.900000E-01   1.00800           0
     20121 MEMB     173      CHL1     H2B      HGA2     0.900000E-01   1.00800           0
     20122 MEMB     173      CHL1     C20      CTL1    -0.900000E-01   12.0110           0
     20123 MEMB     173      CHL1     H20      HAL1     0.900000E-01   1.00800           0
     20124 MEMB     173      CHL1     C21      CTL3    -0.270000       12.0110           0
     20125 MEMB     173      CHL1     H21A     HAL3     0.900000E-01   1.00800           0
     20126 MEMB     173      CHL1     H21B     HAL3     0.900000E-01   1.00800           0
     20127 MEMB     173      CHL1     H21C     HAL3     0.900000E-01   1.00800           0
     20128 MEMB     173      CHL1     C22      CTL2    -0.180000       12.0110           0
     20129 MEMB     173      CHL1     H22A     HAL2     0.900000E-01   1.00800           0
     20130 MEMB     173      CHL1     H22B     HAL2     0.900000E-01   1.00800           0
     20131 MEMB     173      CHL1     C23      CTL2    -0.180000       12.0110           0
     20132 MEMB     173      CHL1     H23A     HAL2     0.900000E-01   1.00800           0
     20133 MEMB     173      CHL1     H23B     HAL2     0.900000E-01   1.00800           0
     20134 MEMB     173      CHL1     C24      CTL2    -0.180000       12.0110           0
     20135 MEMB     173      CHL1     H24A     HAL2     0.900000E-01   1.00800           0
     20136 MEMB     173      CHL1     H24B     HAL2     0.900000E-01   1.00800           0
     20137 MEMB     173      CHL1     C25      CTL1    -0.900000E-01   12.0110           0
     20138 MEMB     173      CHL1     H25      HAL1     0.900000E-01   1.00800           0
     20139 MEMB     173      CHL1     C26      CTL3    -0.270000       12.0110           0
     20140 MEMB     173      CHL1     H26A     HAL3     0.900000E-01   1.00800           0
     20141 MEMB     173      CHL1     H26B     HAL3     0.900000E-01   1.00800           0
     20142 MEMB     173      CHL1     H26C     HAL3     0.900000E-01   1.00800           0
     20143 MEMB     173      CHL1     C27      CTL3    -0.270000       12.0110           0
     20144 MEMB     173      CHL1     H27A     HAL3     0.900000E-01   1.00800           0
     20145 MEMB     173      CHL1     H27B     HAL3     0.900000E-01   1.00800           0
     20146 MEMB     173      CHL1     H27C     HAL3     0.900000E-01   1.00800           0
     20147 MEMB     174      SAPE     N        NH3L    -0.300000       14.0070           0
     20148 MEMB     174      SAPE     HN1      HCL      0.330000       1.00800           0
     20149 MEMB     174      SAPE     HN2      HCL      0.330000       1.00800           0
     20150 MEMB     174      SAPE     HN3      HCL      0.330000       1.00800           0
     20151 MEMB     174      SAPE     C12      CTL2     0.130000       12.0110           0
     20152 MEMB     174      SAPE     H12A     HAL2     0.900000E-01   1.00800           0
     20153 MEMB     174      SAPE     H12B     HAL2     0.900000E-01   1.00800           0
     20154 MEMB     174      SAPE     C11      CTL2    -0.800000E-01   12.0110           0
     20155 MEMB     174      SAPE     H11A     HAL2     0.900000E-01   1.00800           0
     20156 MEMB     174      SAPE     H11B     HAL2     0.900000E-01   1.00800           0
     20157 MEMB     174      SAPE     P        PL        1.50000       30.9740           0
     20158 MEMB     174      SAPE     O13      O2L     -0.780000       15.9994           0
     20159 MEMB     174      SAPE     O14      O2L     -0.780000       15.9994           0
     20160 MEMB     174      SAPE     O12      OSLP    -0.570000       15.9994           0
     20161 MEMB     174      SAPE     O11      OSLP    -0.570000       15.9994           0
     20162 MEMB     174      SAPE     C1       CTL2    -0.800000E-01   12.0110           0
     20163 MEMB     174      SAPE     HA       HAL2     0.900000E-01   1.00800           0
     20164 MEMB     174      SAPE     HB       HAL2     0.900000E-01   1.00800           0
     20165 MEMB     174      SAPE     C2       CTL1     0.170000       12.0110           0
     20166 MEMB     174      SAPE     HS       HAL1     0.900000E-01   1.00800           0
     20167 MEMB     174      SAPE     O21      OSL     -0.490000       15.9994           0
     20168 MEMB     174      SAPE     C21      CL       0.900000       12.0110           0
     20169 MEMB     174      SAPE     O22      OBL     -0.630000       15.9994           0
     20170 MEMB     174      SAPE     C22      CTL2    -0.220000       12.0110           0
     20171 MEMB     174      SAPE     H2R      HAL2     0.900000E-01   1.00800           0
     20172 MEMB     174      SAPE     H2S      HAL2     0.900000E-01   1.00800           0
     20173 MEMB     174      SAPE     C3       CTL2     0.800000E-01   12.0110           0
     20174 MEMB     174      SAPE     HX       HAL2     0.900000E-01   1.00800           0
     20175 MEMB     174      SAPE     HY       HAL2     0.900000E-01   1.00800           0
     20176 MEMB     174      SAPE     O31      OSL     -0.490000       15.9994           0
     20177 MEMB     174      SAPE     C31      CL       0.900000       12.0110           0
     20178 MEMB     174      SAPE     O32      OBL     -0.630000       15.9994           0
     20179 MEMB     174      SAPE     C32      CTL2    -0.220000       12.0110           0
     20180 MEMB     174      SAPE     H2X      HAL2     0.900000E-01   1.00800           0
     20181 MEMB     174      SAPE     H2Y      HAL2     0.900000E-01   1.00800           0
     20182 MEMB     174      SAPE     C23      CTL2    -0.180000       12.0110           0
     20183 MEMB     174      SAPE     H3R      HAL2     0.900000E-01   1.00800           0
     20184 MEMB     174      SAPE     H3S      HAL2     0.900000E-01   1.00800           0
     20185 MEMB     174      SAPE     C24      CTL2    -0.180000       12.0110           0
     20186 MEMB     174      SAPE     H4R      HAL2     0.900000E-01   1.00800           0
     20187 MEMB     174      SAPE     H4S      HAL2     0.900000E-01   1.00800           0
     20188 MEMB     174      SAPE     C25      CEL1    -0.150000       12.0110           0
     20189 MEMB     174      SAPE     H5R      HEL1     0.150000       1.00800           0
     20190 MEMB     174      SAPE     C26      CEL1    -0.150000       12.0110           0
     20191 MEMB     174      SAPE     H6R      HEL1     0.150000       1.00800           0
     20192 MEMB     174      SAPE     C27      CTL2    -0.180000       12.0110           0
     20193 MEMB     174      SAPE     H7R      HAL2     0.900000E-01   1.00800           0
     20194 MEMB     174      SAPE     H7S      HAL2     0.900000E-01   1.00800           0
     20195 MEMB     174      SAPE     C28      CEL1    -0.150000       12.0110           0
     20196 MEMB     174      SAPE     H8R      HEL1     0.150000       1.00800           0
     20197 MEMB     174      SAPE     C29      CEL1    -0.150000       12.0110           0
     20198 MEMB     174      SAPE     H9R      HEL1     0.150000       1.00800           0
     20199 MEMB     174      SAPE     C210     CTL2    -0.180000       12.0110           0
     20200 MEMB     174      SAPE     H10R     HAL2     0.900000E-01   1.00800           0
     20201 MEMB     174      SAPE     H10S     HAL2     0.900000E-01   1.00800           0
     20202 MEMB     174      SAPE     C211     CEL1    -0.150000       12.0110           0
     20203 MEMB     174      SAPE     H11R     HEL1     0.150000       1.00800           0
     20204 MEMB     174      SAPE     C212     CEL1    -0.150000       12.0110           0
     20205 MEMB     174      SAPE     H12R     HEL1     0.150000       1.00800           0
     20206 MEMB     174      SAPE     C213     CTL2    -0.180000       12.0110           0
     20207 MEMB     174      SAPE     H13R     HAL2     0.900000E-01   1.00800           0
     20208 MEMB     174      SAPE     H13S     HAL2     0.900000E-01   1.00800           0
     20209 MEMB     174      SAPE     C214     CEL1    -0.150000       12.0110           0
     20210 MEMB     174      SAPE     H14R     HEL1     0.150000       1.00800           0
     20211 MEMB     174      SAPE     C215     CEL1    -0.150000       12.0110           0
     20212 MEMB     174      SAPE     H15R     HEL1     0.150000       1.00800           0
     20213 MEMB     174      SAPE     C216     CTL2    -0.180000       12.0110           0
     20214 MEMB     174      SAPE     H16R     HAL2     0.900000E-01   1.00800           0
     20215 MEMB     174      SAPE     H16S     HAL2     0.900000E-01   1.00800           0
     20216 MEMB     174      SAPE     C217     CTL2    -0.180000       12.0110           0
     20217 MEMB     174      SAPE     H17R     HAL2     0.900000E-01   1.00800           0
     20218 MEMB     174      SAPE     H17S     HAL2     0.900000E-01   1.00800           0
     20219 MEMB     174      SAPE     C218     CTL2    -0.180000       12.0110           0
     20220 MEMB     174      SAPE     H18R     HAL2     0.900000E-01   1.00800           0
     20221 MEMB     174      SAPE     H18S     HAL2     0.900000E-01   1.00800           0
     20222 MEMB     174      SAPE     C219     CTL2    -0.180000       12.0110           0
     20223 MEMB     174      SAPE     H19R     HAL2     0.900000E-01   1.00800           0
     20224 MEMB     174      SAPE     H19S     HAL2     0.900000E-01   1.00800           0
     20225 MEMB     174      SAPE     C220     CTL3    -0.270000       12.0110           0
     20226 MEMB     174      SAPE     H20R     HAL3     0.900000E-01   1.00800           0
     20227 MEMB     174      SAPE     H20S     HAL3     0.900000E-01   1.00800           0
     20228 MEMB     174      SAPE     H20T     HAL3     0.900000E-01   1.00800           0
     20229 MEMB     174      SAPE     C33      CTL2    -0.180000       12.0110           0
     20230 MEMB     174      SAPE     H3X      HAL2     0.900000E-01   1.00800           0
     20231 MEMB     174      SAPE     H3Y      HAL2     0.900000E-01   1.00800           0
     20232 MEMB     174      SAPE     C34      CTL2    -0.180000       12.0110           0
     20233 MEMB     174      SAPE     H4X      HAL2     0.900000E-01   1.00800           0
     20234 MEMB     174      SAPE     H4Y      HAL2     0.900000E-01   1.00800           0
     20235 MEMB     174      SAPE     C35      CTL2    -0.180000       12.0110           0
     20236 MEMB     174      SAPE     H5X      HAL2     0.900000E-01   1.00800           0
     20237 MEMB     174      SAPE     H5Y      HAL2     0.900000E-01   1.00800           0
     20238 MEMB     174      SAPE     C36      CTL2    -0.180000       12.0110           0
     20239 MEMB     174      SAPE     H6X      HAL2     0.900000E-01   1.00800           0
     20240 MEMB     174      SAPE     H6Y      HAL2     0.900000E-01   1.00800           0
     20241 MEMB     174      SAPE     C37      CTL2    -0.180000       12.0110           0
     20242 MEMB     174      SAPE     H7X      HAL2     0.900000E-01   1.00800           0
     20243 MEMB     174      SAPE     H7Y      HAL2     0.900000E-01   1.00800           0
     20244 MEMB     174      SAPE     C38      CTL2    -0.180000       12.0110           0
     20245 MEMB     174      SAPE     H8X      HAL2     0.900000E-01   1.00800           0
     20246 MEMB     174      SAPE     H8Y      HAL2     0.900000E-01   1.00800           0
     20247 MEMB     174      SAPE     C39      CTL2    -0.180000       12.0110           0
     20248 MEMB     174      SAPE     H9X      HAL2     0.900000E-01   1.00800           0
     20249 MEMB     174      SAPE     H9Y      HAL2     0.900000E-01   1.00800           0
     20250 MEMB     174      SAPE     C310     CTL2    -0.180000       12.0110           0
     20251 MEMB     174      SAPE     H10X     HAL2     0.900000E-01   1.00800           0
     20252 MEMB     174      SAPE     H10Y     HAL2     0.900000E-01   1.00800           0
     20253 MEMB     174      SAPE     C311     CTL2    -0.180000       12.0110           0
     20254 MEMB     174      SAPE     H11X     HAL2     0.900000E-01   1.00800           0
     20255 MEMB     174      SAPE     H11Y     HAL2     0.900000E-01   1.00800           0
     20256 MEMB     174      SAPE     C312     CTL2    -0.180000       12.0110           0
     20257 MEMB     174      SAPE     H12X     HAL2     0.900000E-01   1.00800           0
     20258 MEMB     174      SAPE     H12Y     HAL2     0.900000E-01   1.00800           0
     20259 MEMB     174      SAPE     C313     CTL2    -0.180000       12.0110           0
     20260 MEMB     174      SAPE     H13X     HAL2     0.900000E-01   1.00800           0
     20261 MEMB     174      SAPE     H13Y     HAL2     0.900000E-01   1.00800           0
     20262 MEMB     174      SAPE     C314     CTL2    -0.180000       12.0110           0
     20263 MEMB     174      SAPE     H14X     HAL2     0.900000E-01   1.00800           0
     20264 MEMB     174      SAPE     H14Y     HAL2     0.900000E-01   1.00800           0
     20265 MEMB     174      SAPE     C315     CTL2    -0.180000       12.0110           0
     20266 MEMB     174      SAPE     H15X     HAL2     0.900000E-01   1.00800           0
     20267 MEMB     174      SAPE     H15Y     HAL2     0.900000E-01   1.00800           0
     20268 MEMB     174      SAPE     C316     CTL2    -0.180000       12.0110           0
     20269 MEMB     174      SAPE     H16X     HAL2     0.900000E-01   1.00800           0
     20270 MEMB     174      SAPE     H16Y     HAL2     0.900000E-01   1.00800           0
     20271 MEMB     174      SAPE     C317     CTL2    -0.180000       12.0110           0
     20272 MEMB     174      SAPE     H17X     HAL2     0.900000E-01   1.00800           0
     20273 MEMB     174      SAPE     H17Y     HAL2     0.900000E-01   1.00800           0
     20274 MEMB     174      SAPE     C318     CTL3    -0.270000       12.0110           0
     20275 MEMB     174      SAPE     H18X     HAL3     0.900000E-01   1.00800           0
     20276 MEMB     174      SAPE     H18Y     HAL3     0.900000E-01   1.00800           0
     20277 MEMB     174      SAPE     H18Z     HAL3     0.900000E-01   1.00800           0
     20278 MEMB     175      CHL1     C3       CRL1     0.140000       12.0110           0
     20279 MEMB     175      CHL1     H3       HGA1     0.900000E-01   1.00800           0
     20280 MEMB     175      CHL1     O3       OHL     -0.660000       15.9994           0
     20281 MEMB     175      CHL1     H3'      HOL      0.430000       1.00800           0
     20282 MEMB     175      CHL1     C4       CRL2    -0.180000       12.0110           0
     20283 MEMB     175      CHL1     H4A      HGA2     0.900000E-01   1.00800           0
     20284 MEMB     175      CHL1     H4B      HGA2     0.900000E-01   1.00800           0
     20285 MEMB     175      CHL1     C5       CEL1      0.00000       12.0110           0
     20286 MEMB     175      CHL1     C6       CEL1    -0.150000       12.0110           0
     20287 MEMB     175      CHL1     H6       HEL1     0.150000       1.00800           0
     20288 MEMB     175      CHL1     C7       CRL2    -0.180000       12.0110           0
     20289 MEMB     175      CHL1     H7A      HGA2     0.900000E-01   1.00800           0
     20290 MEMB     175      CHL1     H7B      HGA2     0.900000E-01   1.00800           0
     20291 MEMB     175      CHL1     C8       CRL1    -0.900000E-01   12.0110           0
     20292 MEMB     175      CHL1     H8       HGA1     0.900000E-01   1.00800           0
     20293 MEMB     175      CHL1     C14      CRL1    -0.900000E-01   12.0110           0
     20294 MEMB     175      CHL1     H14      HGA1     0.900000E-01   1.00800           0
     20295 MEMB     175      CHL1     C15      CRL2    -0.180000       12.0110           0
     20296 MEMB     175      CHL1     H15A     HGA2     0.900000E-01   1.00800           0
     20297 MEMB     175      CHL1     H15B     HGA2     0.900000E-01   1.00800           0
     20298 MEMB     175      CHL1     C16      CRL2    -0.180000       12.0110           0
     20299 MEMB     175      CHL1     H16A     HGA2     0.900000E-01   1.00800           0
     20300 MEMB     175      CHL1     H16B     HGA2     0.900000E-01   1.00800           0
     20301 MEMB     175      CHL1     C17      CRL1    -0.900000E-01   12.0110           0
     20302 MEMB     175      CHL1     H17      HGA1     0.900000E-01   1.00800           0
     20303 MEMB     175      CHL1     C13      CRL1      0.00000       12.0110           0
     20304 MEMB     175      CHL1     C18      CTL3    -0.270000       12.0110           0
     20305 MEMB     175      CHL1     H18A     HAL3     0.900000E-01   1.00800           0
     20306 MEMB     175      CHL1     H18B     HAL3     0.900000E-01   1.00800           0
     20307 MEMB     175      CHL1     H18C     HAL3     0.900000E-01   1.00800           0
     20308 MEMB     175      CHL1     C12      CRL2    -0.180000       12.0110           0
     20309 MEMB     175      CHL1     H12A     HGA2     0.900000E-01   1.00800           0
     20310 MEMB     175      CHL1     H12B     HGA2     0.900000E-01   1.00800           0
     20311 MEMB     175      CHL1     C11      CRL2    -0.180000       12.0110           0
     20312 MEMB     175      CHL1     H11A     HGA2     0.900000E-01   1.00800           0
     20313 MEMB     175      CHL1     H11B     HGA2     0.900000E-01   1.00800           0
     20314 MEMB     175      CHL1     C9       CRL1    -0.900000E-01   12.0110           0
     20315 MEMB     175      CHL1     H9       HGA1     0.900000E-01   1.00800           0
     20316 MEMB     175      CHL1     C10      CRL1      0.00000       12.0110           0
     20317 MEMB     175      CHL1     C19      CTL3    -0.270000       12.0110           0
     20318 MEMB     175      CHL1     H19A     HAL3     0.900000E-01   1.00800           0
     20319 MEMB     175      CHL1     H19B     HAL3     0.900000E-01   1.00800           0
     20320 MEMB     175      CHL1     H19C     HAL3     0.900000E-01   1.00800           0
     20321 MEMB     175      CHL1     C1       CRL2    -0.180000       12.0110           0
     20322 MEMB     175      CHL1     H1A      HGA2     0.900000E-01   1.00800           0
     20323 MEMB     175      CHL1     H1B      HGA2     0.900000E-01   1.00800           0
     20324 MEMB     175      CHL1     C2       CRL2    -0.180000       12.0110           0
     20325 MEMB     175      CHL1     H2A      HGA2     0.900000E-01   1.00800           0
     20326 MEMB     175      CHL1     H2B      HGA2     0.900000E-01   1.00800           0
     20327 MEMB     175      CHL1     C20      CTL1    -0.900000E-01   12.0110           0
     20328 MEMB     175      CHL1     H20      HAL1     0.900000E-01   1.00800           0
     20329 MEMB     175      CHL1     C21      CTL3    -0.270000       12.0110           0
     20330 MEMB     175      CHL1     H21A     HAL3     0.900000E-01   1.00800           0
     20331 MEMB     175      CHL1     H21B     HAL3     0.900000E-01   1.00800           0
     20332 MEMB     175      CHL1     H21C     HAL3     0.900000E-01   1.00800           0
     20333 MEMB     175      CHL1     C22      CTL2    -0.180000       12.0110           0
     20334 MEMB     175      CHL1     H22A     HAL2     0.900000E-01   1.00800           0
     20335 MEMB     175      CHL1     H22B     HAL2     0.900000E-01   1.00800           0
     20336 MEMB     175      CHL1     C23      CTL2    -0.180000       12.0110           0
     20337 MEMB     175      CHL1     H23A     HAL2     0.900000E-01   1.00800           0
     20338 MEMB     175      CHL1     H23B     HAL2     0.900000E-01   1.00800           0
     20339 MEMB     175      CHL1     C24      CTL2    -0.180000       12.0110           0
     20340 MEMB     175      CHL1     H24A     HAL2     0.900000E-01   1.00800           0
     20341 MEMB     175      CHL1     H24B     HAL2     0.900000E-01   1.00800           0
     20342 MEMB     175      CHL1     C25      CTL1    -0.900000E-01   12.0110           0
     20343 MEMB     175      CHL1     H25      HAL1     0.900000E-01   1.00800           0
     20344 MEMB     175      CHL1     C26      CTL3    -0.270000       12.0110           0
     20345 MEMB     175      CHL1     H26A     HAL3     0.900000E-01   1.00800           0
     20346 MEMB     175      CHL1     H26B     HAL3     0.900000E-01   1.00800           0
     20347 MEMB     175      CHL1     H26C     HAL3     0.900000E-01   1.00800           0
     20348 MEMB     175      CHL1     C27      CTL3    -0.270000       12.0110           0
     20349 MEMB     175      CHL1     H27A     HAL3     0.900000E-01   1.00800           0
     20350 MEMB     175      CHL1     H27B     HAL3     0.900000E-01   1.00800           0
     20351 MEMB     175      CHL1     H27C     HAL3     0.900000E-01   1.00800           0
     20352 MEMB     176      CHL1     C3       CRL1     0.140000       12.0110           0
     20353 MEMB     176      CHL1     H3       HGA1     0.900000E-01   1.00800           0
     20354 MEMB     176      CHL1     O3       OHL     -0.660000       15.9994           0
     20355 MEMB     176      CHL1     H3'      HOL      0.430000       1.00800           0
     20356 MEMB     176      CHL1     C4       CRL2    -0.180000       12.0110           0
     20357 MEMB     176      CHL1     H4A      HGA2     0.900000E-01   1.00800           0
     20358 MEMB     176      CHL1     H4B      HGA2     0.900000E-01   1.00800           0
     20359 MEMB     176      CHL1     C5       CEL1      0.00000       12.0110           0
     20360 MEMB     176      CHL1     C6       CEL1    -0.150000       12.0110           0
     20361 MEMB     176      CHL1     H6       HEL1     0.150000       1.00800           0
     20362 MEMB     176      CHL1     C7       CRL2    -0.180000       12.0110           0
     20363 MEMB     176      CHL1     H7A      HGA2     0.900000E-01   1.00800           0
     20364 MEMB     176      CHL1     H7B      HGA2     0.900000E-01   1.00800           0
     20365 MEMB     176      CHL1     C8       CRL1    -0.900000E-01   12.0110           0
     20366 MEMB     176      CHL1     H8       HGA1     0.900000E-01   1.00800           0
     20367 MEMB     176      CHL1     C14      CRL1    -0.900000E-01   12.0110           0
     20368 MEMB     176      CHL1     H14      HGA1     0.900000E-01   1.00800           0
     20369 MEMB     176      CHL1     C15      CRL2    -0.180000       12.0110           0
     20370 MEMB     176      CHL1     H15A     HGA2     0.900000E-01   1.00800           0
     20371 MEMB     176      CHL1     H15B     HGA2     0.900000E-01   1.00800           0
     20372 MEMB     176      CHL1     C16      CRL2    -0.180000       12.0110           0
     20373 MEMB     176      CHL1     H16A     HGA2     0.900000E-01   1.00800           0
     20374 MEMB     176      CHL1     H16B     HGA2     0.900000E-01   1.00800           0
     20375 MEMB     176      CHL1     C17      CRL1    -0.900000E-01   12.0110           0
     20376 MEMB     176      CHL1     H17      HGA1     0.900000E-01   1.00800           0
     20377 MEMB     176      CHL1     C13      CRL1      0.00000       12.0110           0
     20378 MEMB     176      CHL1     C18      CTL3    -0.270000       12.0110           0
     20379 MEMB     176      CHL1     H18A     HAL3     0.900000E-01   1.00800           0
     20380 MEMB     176      CHL1     H18B     HAL3     0.900000E-01   1.00800           0
     20381 MEMB     176      CHL1     H18C     HAL3     0.900000E-01   1.00800           0
     20382 MEMB     176      CHL1     C12      CRL2    -0.180000       12.0110           0
     20383 MEMB     176      CHL1     H12A     HGA2     0.900000E-01   1.00800           0
     20384 MEMB     176      CHL1     H12B     HGA2     0.900000E-01   1.00800           0
     20385 MEMB     176      CHL1     C11      CRL2    -0.180000       12.0110           0
     20386 MEMB     176      CHL1     H11A     HGA2     0.900000E-01   1.00800           0
     20387 MEMB     176      CHL1     H11B     HGA2     0.900000E-01   1.00800           0
     20388 MEMB     176      CHL1     C9       CRL1    -0.900000E-01   12.0110           0
     20389 MEMB     176      CHL1     H9       HGA1     0.900000E-01   1.00800           0
     20390 MEMB     176      CHL1     C10      CRL1      0.00000       12.0110           0
     20391 MEMB     176      CHL1     C19      CTL3    -0.270000       12.0110           0
     20392 MEMB     176      CHL1     H19A     HAL3     0.900000E-01   1.00800           0
     20393 MEMB     176      CHL1     H19B     HAL3     0.900000E-01   1.00800           0
     20394 MEMB     176      CHL1     H19C     HAL3     0.900000E-01   1.00800           0
     20395 MEMB     176      CHL1     C1       CRL2    -0.180000       12.0110           0
     20396 MEMB     176      CHL1     H1A      HGA2     0.900000E-01   1.00800           0
     20397 MEMB     176      CHL1     H1B      HGA2     0.900000E-01   1.00800           0
     20398 MEMB     176      CHL1     C2       CRL2    -0.180000       12.0110           0
     20399 MEMB     176      CHL1     H2A      HGA2     0.900000E-01   1.00800           0
     20400 MEMB     176      CHL1     H2B      HGA2     0.900000E-01   1.00800           0
     20401 MEMB     176      CHL1     C20      CTL1    -0.900000E-01   12.0110           0
     20402 MEMB     176      CHL1     H20      HAL1     0.900000E-01   1.00800           0
     20403 MEMB     176      CHL1     C21      CTL3    -0.270000       12.0110           0
     20404 MEMB     176      CHL1     H21A     HAL3     0.900000E-01   1.00800           0
     20405 MEMB     176      CHL1     H21B     HAL3     0.900000E-01   1.00800           0
     20406 MEMB     176      CHL1     H21C     HAL3     0.900000E-01   1.00800           0
     20407 MEMB     176      CHL1     C22      CTL2    -0.180000       12.0110           0
     20408 MEMB     176      CHL1     H22A     HAL2     0.900000E-01   1.00800           0
     20409 MEMB     176      CHL1     H22B     HAL2     0.900000E-01   1.00800           0
     20410 MEMB     176      CHL1     C23      CTL2    -0.180000       12.0110           0
     20411 MEMB     176      CHL1     H23A     HAL2     0.900000E-01   1.00800           0
     20412 MEMB     176      CHL1     H23B     HAL2     0.900000E-01   1.00800           0
     20413 MEMB     176      CHL1     C24      CTL2    -0.180000       12.0110           0
     20414 MEMB     176      CHL1     H24A     HAL2     0.900000E-01   1.00800           0
     20415 MEMB     176      CHL1     H24B     HAL2     0.900000E-01   1.00800           0
     20416 MEMB     176      CHL1     C25      CTL1    -0.900000E-01   12.0110           0
     20417 MEMB     176      CHL1     H25      HAL1     0.900000E-01   1.00800           0
     20418 MEMB     176      CHL1     C26      CTL3    -0.270000       12.0110           0
     20419 MEMB     176      CHL1     H26A     HAL3     0.900000E-01   1.00800           0
     20420 MEMB     176      CHL1     H26B     HAL3     0.900000E-01   1.00800           0
     20421 MEMB     176      CHL1     H26C     HAL3     0.900000E-01   1.00800           0
     20422 MEMB     176      CHL1     C27      CTL3    -0.270000       12.0110           0
     20423 MEMB     176      CHL1     H27A     HAL3     0.900000E-01   1.00800           0
     20424 MEMB     176      CHL1     H27B     HAL3     0.900000E-01   1.00800           0
     20425 MEMB     176      CHL1     H27C     HAL3     0.900000E-01   1.00800           0
     20426 MEMB     177      SAPE     N        NH3L    -0.300000       14.0070           0
     20427 MEMB     177      SAPE     HN1      HCL      0.330000       1.00800           0
     20428 MEMB     177      SAPE     HN2      HCL      0.330000       1.00800           0
     20429 MEMB     177      SAPE     HN3      HCL      0.330000       1.00800           0
     20430 MEMB     177      SAPE     C12      CTL2     0.130000       12.0110           0
     20431 MEMB     177      SAPE     H12A     HAL2     0.900000E-01   1.00800           0
     20432 MEMB     177      SAPE     H12B     HAL2     0.900000E-01   1.00800           0
     20433 MEMB     177      SAPE     C11      CTL2    -0.800000E-01   12.0110           0
     20434 MEMB     177      SAPE     H11A     HAL2     0.900000E-01   1.00800           0
     20435 MEMB     177      SAPE     H11B     HAL2     0.900000E-01   1.00800           0
     20436 MEMB     177      SAPE     P        PL        1.50000       30.9740           0
     20437 MEMB     177      SAPE     O13      O2L     -0.780000       15.9994           0
     20438 MEMB     177      SAPE     O14      O2L     -0.780000       15.9994           0
     20439 MEMB     177      SAPE     O12      OSLP    -0.570000       15.9994           0
     20440 MEMB     177      SAPE     O11      OSLP    -0.570000       15.9994           0
     20441 MEMB     177      SAPE     C1       CTL2    -0.800000E-01   12.0110           0
     20442 MEMB     177      SAPE     HA       HAL2     0.900000E-01   1.00800           0
     20443 MEMB     177      SAPE     HB       HAL2     0.900000E-01   1.00800           0
     20444 MEMB     177      SAPE     C2       CTL1     0.170000       12.0110           0
     20445 MEMB     177      SAPE     HS       HAL1     0.900000E-01   1.00800           0
     20446 MEMB     177      SAPE     O21      OSL     -0.490000       15.9994           0
     20447 MEMB     177      SAPE     C21      CL       0.900000       12.0110           0
     20448 MEMB     177      SAPE     O22      OBL     -0.630000       15.9994           0
     20449 MEMB     177      SAPE     C22      CTL2    -0.220000       12.0110           0
     20450 MEMB     177      SAPE     H2R      HAL2     0.900000E-01   1.00800           0
     20451 MEMB     177      SAPE     H2S      HAL2     0.900000E-01   1.00800           0
     20452 MEMB     177      SAPE     C3       CTL2     0.800000E-01   12.0110           0
     20453 MEMB     177      SAPE     HX       HAL2     0.900000E-01   1.00800           0
     20454 MEMB     177      SAPE     HY       HAL2     0.900000E-01   1.00800           0
     20455 MEMB     177      SAPE     O31      OSL     -0.490000       15.9994           0
     20456 MEMB     177      SAPE     C31      CL       0.900000       12.0110           0
     20457 MEMB     177      SAPE     O32      OBL     -0.630000       15.9994           0
     20458 MEMB     177      SAPE     C32      CTL2    -0.220000       12.0110           0
     20459 MEMB     177      SAPE     H2X      HAL2     0.900000E-01   1.00800           0
     20460 MEMB     177      SAPE     H2Y      HAL2     0.900000E-01   1.00800           0
     20461 MEMB     177      SAPE     C23      CTL2    -0.180000       12.0110           0
     20462 MEMB     177      SAPE     H3R      HAL2     0.900000E-01   1.00800           0
     20463 MEMB     177      SAPE     H3S      HAL2     0.900000E-01   1.00800           0
     20464 MEMB     177      SAPE     C24      CTL2    -0.180000       12.0110           0
     20465 MEMB     177      SAPE     H4R      HAL2     0.900000E-01   1.00800           0
     20466 MEMB     177      SAPE     H4S      HAL2     0.900000E-01   1.00800           0
     20467 MEMB     177      SAPE     C25      CEL1    -0.150000       12.0110           0
     20468 MEMB     177      SAPE     H5R      HEL1     0.150000       1.00800           0
     20469 MEMB     177      SAPE     C26      CEL1    -0.150000       12.0110           0
     20470 MEMB     177      SAPE     H6R      HEL1     0.150000       1.00800           0
     20471 MEMB     177      SAPE     C27      CTL2    -0.180000       12.0110           0
     20472 MEMB     177      SAPE     H7R      HAL2     0.900000E-01   1.00800           0
     20473 MEMB     177      SAPE     H7S      HAL2     0.900000E-01   1.00800           0
     20474 MEMB     177      SAPE     C28      CEL1    -0.150000       12.0110           0
     20475 MEMB     177      SAPE     H8R      HEL1     0.150000       1.00800           0
     20476 MEMB     177      SAPE     C29      CEL1    -0.150000       12.0110           0
     20477 MEMB     177      SAPE     H9R      HEL1     0.150000       1.00800           0
     20478 MEMB     177      SAPE     C210     CTL2    -0.180000       12.0110           0
     20479 MEMB     177      SAPE     H10R     HAL2     0.900000E-01   1.00800           0
     20480 MEMB     177      SAPE     H10S     HAL2     0.900000E-01   1.00800           0
     20481 MEMB     177      SAPE     C211     CEL1    -0.150000       12.0110           0
     20482 MEMB     177      SAPE     H11R     HEL1     0.150000       1.00800           0
     20483 MEMB     177      SAPE     C212     CEL1    -0.150000       12.0110           0
     20484 MEMB     177      SAPE     H12R     HEL1     0.150000       1.00800           0
     20485 MEMB     177      SAPE     C213     CTL2    -0.180000       12.0110           0
     20486 MEMB     177      SAPE     H13R     HAL2     0.900000E-01   1.00800           0
     20487 MEMB     177      SAPE     H13S     HAL2     0.900000E-01   1.00800           0
     20488 MEMB     177      SAPE     C214     CEL1    -0.150000       12.0110           0
     20489 MEMB     177      SAPE     H14R     HEL1     0.150000       1.00800           0
     20490 MEMB     177      SAPE     C215     CEL1    -0.150000       12.0110           0
     20491 MEMB     177      SAPE     H15R     HEL1     0.150000       1.00800           0
     20492 MEMB     177      SAPE     C216     CTL2    -0.180000       12.0110           0
     20493 MEMB     177      SAPE     H16R     HAL2     0.900000E-01   1.00800           0
     20494 MEMB     177      SAPE     H16S     HAL2     0.900000E-01   1.00800           0
     20495 MEMB     177      SAPE     C217     CTL2    -0.180000       12.0110           0
     20496 MEMB     177      SAPE     H17R     HAL2     0.900000E-01   1.00800           0
     20497 MEMB     177      SAPE     H17S     HAL2     0.900000E-01   1.00800           0
     20498 MEMB     177      SAPE     C218     CTL2    -0.180000       12.0110           0
     20499 MEMB     177      SAPE     H18R     HAL2     0.900000E-01   1.00800           0
     20500 MEMB     177      SAPE     H18S     HAL2     0.900000E-01   1.00800           0
     20501 MEMB     177      SAPE     C219     CTL2    -0.180000       12.0110           0
     20502 MEMB     177      SAPE     H19R     HAL2     0.900000E-01   1.00800           0
     20503 MEMB     177      SAPE     H19S     HAL2     0.900000E-01   1.00800           0
     20504 MEMB     177      SAPE     C220     CTL3    -0.270000       12.0110           0
     20505 MEMB     177      SAPE     H20R     HAL3     0.900000E-01   1.00800           0
     20506 MEMB     177      SAPE     H20S     HAL3     0.900000E-01   1.00800           0
     20507 MEMB     177      SAPE     H20T     HAL3     0.900000E-01   1.00800           0
     20508 MEMB     177      SAPE     C33      CTL2    -0.180000       12.0110           0
     20509 MEMB     177      SAPE     H3X      HAL2     0.900000E-01   1.00800           0
     20510 MEMB     177      SAPE     H3Y      HAL2     0.900000E-01   1.00800           0
     20511 MEMB     177      SAPE     C34      CTL2    -0.180000       12.0110           0
     20512 MEMB     177      SAPE     H4X      HAL2     0.900000E-01   1.00800           0
     20513 MEMB     177      SAPE     H4Y      HAL2     0.900000E-01   1.00800           0
     20514 MEMB     177      SAPE     C35      CTL2    -0.180000       12.0110           0
     20515 MEMB     177      SAPE     H5X      HAL2     0.900000E-01   1.00800           0
     20516 MEMB     177      SAPE     H5Y      HAL2     0.900000E-01   1.00800           0
     20517 MEMB     177      SAPE     C36      CTL2    -0.180000       12.0110           0
     20518 MEMB     177      SAPE     H6X      HAL2     0.900000E-01   1.00800           0
     20519 MEMB     177      SAPE     H6Y      HAL2     0.900000E-01   1.00800           0
     20520 MEMB     177      SAPE     C37      CTL2    -0.180000       12.0110           0
     20521 MEMB     177      SAPE     H7X      HAL2     0.900000E-01   1.00800           0
     20522 MEMB     177      SAPE     H7Y      HAL2     0.900000E-01   1.00800           0
     20523 MEMB     177      SAPE     C38      CTL2    -0.180000       12.0110           0
     20524 MEMB     177      SAPE     H8X      HAL2     0.900000E-01   1.00800           0
     20525 MEMB     177      SAPE     H8Y      HAL2     0.900000E-01   1.00800           0
     20526 MEMB     177      SAPE     C39      CTL2    -0.180000       12.0110           0
     20527 MEMB     177      SAPE     H9X      HAL2     0.900000E-01   1.00800           0
     20528 MEMB     177      SAPE     H9Y      HAL2     0.900000E-01   1.00800           0
     20529 MEMB     177      SAPE     C310     CTL2    -0.180000       12.0110           0
     20530 MEMB     177      SAPE     H10X     HAL2     0.900000E-01   1.00800           0
     20531 MEMB     177      SAPE     H10Y     HAL2     0.900000E-01   1.00800           0
     20532 MEMB     177      SAPE     C311     CTL2    -0.180000       12.0110           0
     20533 MEMB     177      SAPE     H11X     HAL2     0.900000E-01   1.00800           0
     20534 MEMB     177      SAPE     H11Y     HAL2     0.900000E-01   1.00800           0
     20535 MEMB     177      SAPE     C312     CTL2    -0.180000       12.0110           0
     20536 MEMB     177      SAPE     H12X     HAL2     0.900000E-01   1.00800           0
     20537 MEMB     177      SAPE     H12Y     HAL2     0.900000E-01   1.00800           0
     20538 MEMB     177      SAPE     C313     CTL2    -0.180000       12.0110           0
     20539 MEMB     177      SAPE     H13X     HAL2     0.900000E-01   1.00800           0
     20540 MEMB     177      SAPE     H13Y     HAL2     0.900000E-01   1.00800           0
     20541 MEMB     177      SAPE     C314     CTL2    -0.180000       12.0110           0
     20542 MEMB     177      SAPE     H14X     HAL2     0.900000E-01   1.00800           0
     20543 MEMB     177      SAPE     H14Y     HAL2     0.900000E-01   1.00800           0
     20544 MEMB     177      SAPE     C315     CTL2    -0.180000       12.0110           0
     20545 MEMB     177      SAPE     H15X     HAL2     0.900000E-01   1.00800           0
     20546 MEMB     177      SAPE     H15Y     HAL2     0.900000E-01   1.00800           0
     20547 MEMB     177      SAPE     C316     CTL2    -0.180000       12.0110           0
     20548 MEMB     177      SAPE     H16X     HAL2     0.900000E-01   1.00800           0
     20549 MEMB     177      SAPE     H16Y     HAL2     0.900000E-01   1.00800           0
     20550 MEMB     177      SAPE     C317     CTL2    -0.180000       12.0110           0
     20551 MEMB     177      SAPE     H17X     HAL2     0.900000E-01   1.00800           0
     20552 MEMB     177      SAPE     H17Y     HAL2     0.900000E-01   1.00800           0
     20553 MEMB     177      SAPE     C318     CTL3    -0.270000       12.0110           0
     20554 MEMB     177      SAPE     H18X     HAL3     0.900000E-01   1.00800           0
     20555 MEMB     177      SAPE     H18Y     HAL3     0.900000E-01   1.00800           0
     20556 MEMB     177      SAPE     H18Z     HAL3     0.900000E-01   1.00800           0
     20557 MEMB     178      SLPC     N        NTL     -0.600000       14.0070           0
     20558 MEMB     178      SLPC     C13      CTL5    -0.350000       12.0110           0
     20559 MEMB     178      SLPC     H13A     HL       0.250000       1.00800           0
     20560 MEMB     178      SLPC     H13B     HL       0.250000       1.00800           0
     20561 MEMB     178      SLPC     H13C     HL       0.250000       1.00800           0
     20562 MEMB     178      SLPC     C14      CTL5    -0.350000       12.0110           0
     20563 MEMB     178      SLPC     H14A     HL       0.250000       1.00800           0
     20564 MEMB     178      SLPC     H14B     HL       0.250000       1.00800           0
     20565 MEMB     178      SLPC     H14C     HL       0.250000       1.00800           0
     20566 MEMB     178      SLPC     C15      CTL5    -0.350000       12.0110           0
     20567 MEMB     178      SLPC     H15A     HL       0.250000       1.00800           0
     20568 MEMB     178      SLPC     H15B     HL       0.250000       1.00800           0
     20569 MEMB     178      SLPC     H15C     HL       0.250000       1.00800           0
     20570 MEMB     178      SLPC     C12      CTL2    -0.100000       12.0110           0
     20571 MEMB     178      SLPC     H12A     HL       0.250000       1.00800           0
     20572 MEMB     178      SLPC     H12B     HL       0.250000       1.00800           0
     20573 MEMB     178      SLPC     C11      CTL2    -0.800000E-01   12.0110           0
     20574 MEMB     178      SLPC     H11A     HAL2     0.900000E-01   1.00800           0
     20575 MEMB     178      SLPC     H11B     HAL2     0.900000E-01   1.00800           0
     20576 MEMB     178      SLPC     P        PL        1.50000       30.9740           0
     20577 MEMB     178      SLPC     O13      O2L     -0.780000       15.9994           0
     20578 MEMB     178      SLPC     O14      O2L     -0.780000       15.9994           0
     20579 MEMB     178      SLPC     O12      OSLP    -0.570000       15.9994           0
     20580 MEMB     178      SLPC     O11      OSLP    -0.570000       15.9994           0
     20581 MEMB     178      SLPC     C1       CTL2    -0.800000E-01   12.0110           0
     20582 MEMB     178      SLPC     HA       HAL2     0.900000E-01   1.00800           0
     20583 MEMB     178      SLPC     HB       HAL2     0.900000E-01   1.00800           0
     20584 MEMB     178      SLPC     C2       CTL1     0.170000       12.0110           0
     20585 MEMB     178      SLPC     HS       HAL1     0.900000E-01   1.00800           0
     20586 MEMB     178      SLPC     O21      OSL     -0.490000       15.9994           0
     20587 MEMB     178      SLPC     C21      CL       0.900000       12.0110           0
     20588 MEMB     178      SLPC     O22      OBL     -0.630000       15.9994           0
     20589 MEMB     178      SLPC     C22      CTL2    -0.220000       12.0110           0
     20590 MEMB     178      SLPC     H2R      HAL2     0.900000E-01   1.00800           0
     20591 MEMB     178      SLPC     H2S      HAL2     0.900000E-01   1.00800           0
     20592 MEMB     178      SLPC     C3       CTL2     0.800000E-01   12.0110           0
     20593 MEMB     178      SLPC     HX       HAL2     0.900000E-01   1.00800           0
     20594 MEMB     178      SLPC     HY       HAL2     0.900000E-01   1.00800           0
     20595 MEMB     178      SLPC     O31      OSL     -0.490000       15.9994           0
     20596 MEMB     178      SLPC     C31      CL       0.900000       12.0110           0
     20597 MEMB     178      SLPC     O32      OBL     -0.630000       15.9994           0
     20598 MEMB     178      SLPC     C32      CTL2    -0.220000       12.0110           0
     20599 MEMB     178      SLPC     H2X      HAL2     0.900000E-01   1.00800           0
     20600 MEMB     178      SLPC     H2Y      HAL2     0.900000E-01   1.00800           0
     20601 MEMB     178      SLPC     C23      CTL2    -0.180000       12.0110           0
     20602 MEMB     178      SLPC     H3R      HAL2     0.900000E-01   1.00800           0
     20603 MEMB     178      SLPC     H3S      HAL2     0.900000E-01   1.00800           0
     20604 MEMB     178      SLPC     C24      CTL2    -0.180000       12.0110           0
     20605 MEMB     178      SLPC     H4R      HAL2     0.900000E-01   1.00800           0
     20606 MEMB     178      SLPC     H4S      HAL2     0.900000E-01   1.00800           0
     20607 MEMB     178      SLPC     C25      CTL2    -0.180000       12.0110           0
     20608 MEMB     178      SLPC     H5R      HAL2     0.900000E-01   1.00800           0
     20609 MEMB     178      SLPC     H5S      HAL2     0.900000E-01   1.00800           0
     20610 MEMB     178      SLPC     C26      CTL2    -0.180000       12.0110           0
     20611 MEMB     178      SLPC     H6R      HAL2     0.900000E-01   1.00800           0
     20612 MEMB     178      SLPC     H6S      HAL2     0.900000E-01   1.00800           0
     20613 MEMB     178      SLPC     C27      CTL2    -0.180000       12.0110           0
     20614 MEMB     178      SLPC     H7R      HAL2     0.900000E-01   1.00800           0
     20615 MEMB     178      SLPC     H7S      HAL2     0.900000E-01   1.00800           0
     20616 MEMB     178      SLPC     C28      CTL2    -0.180000       12.0110           0
     20617 MEMB     178      SLPC     H8R      HAL2     0.900000E-01   1.00800           0
     20618 MEMB     178      SLPC     H8S      HAL2     0.900000E-01   1.00800           0
     20619 MEMB     178      SLPC     C29      CEL1    -0.150000       12.0110           0
     20620 MEMB     178      SLPC     H9R      HEL1     0.150000       1.00800           0
     20621 MEMB     178      SLPC     C210     CEL1    -0.150000       12.0110           0
     20622 MEMB     178      SLPC     H10R     HEL1     0.150000       1.00800           0
     20623 MEMB     178      SLPC     C211     CTL2    -0.180000       12.0110           0
     20624 MEMB     178      SLPC     H11R     HAL2     0.900000E-01   1.00800           0
     20625 MEMB     178      SLPC     H11S     HAL2     0.900000E-01   1.00800           0
     20626 MEMB     178      SLPC     C212     CEL1    -0.150000       12.0110           0
     20627 MEMB     178      SLPC     H12R     HEL1     0.150000       1.00800           0
     20628 MEMB     178      SLPC     C213     CEL1    -0.150000       12.0110           0
     20629 MEMB     178      SLPC     H13R     HEL1     0.150000       1.00800           0
     20630 MEMB     178      SLPC     C214     CTL2    -0.180000       12.0110           0
     20631 MEMB     178      SLPC     H14R     HAL2     0.900000E-01   1.00800           0
     20632 MEMB     178      SLPC     H14S     HAL2     0.900000E-01   1.00800           0
     20633 MEMB     178      SLPC     C215     CTL2    -0.180000       12.0110           0
     20634 MEMB     178      SLPC     H15R     HAL2     0.900000E-01   1.00800           0
     20635 MEMB     178      SLPC     H15S     HAL2     0.900000E-01   1.00800           0
     20636 MEMB     178      SLPC     C216     CTL2    -0.180000       12.0110           0
     20637 MEMB     178      SLPC     H16R     HAL2     0.900000E-01   1.00800           0
     20638 MEMB     178      SLPC     H16S     HAL2     0.900000E-01   1.00800           0
     20639 MEMB     178      SLPC     C217     CTL2    -0.180000       12.0110           0
     20640 MEMB     178      SLPC     H17R     HAL2     0.900000E-01   1.00800           0
     20641 MEMB     178      SLPC     H17S     HAL2     0.900000E-01   1.00800           0
     20642 MEMB     178      SLPC     C218     CTL3    -0.270000       12.0110           0
     20643 MEMB     178      SLPC     H18R     HAL3     0.900000E-01   1.00800           0
     20644 MEMB     178      SLPC     H18S     HAL3     0.900000E-01   1.00800           0
     20645 MEMB     178      SLPC     H18T     HAL3     0.900000E-01   1.00800           0
     20646 MEMB     178      SLPC     C33      CTL2    -0.180000       12.0110           0
     20647 MEMB     178      SLPC     H3X      HAL2     0.900000E-01   1.00800           0
     20648 MEMB     178      SLPC     H3Y      HAL2     0.900000E-01   1.00800           0
     20649 MEMB     178      SLPC     C34      CTL2    -0.180000       12.0110           0
     20650 MEMB     178      SLPC     H4X      HAL2     0.900000E-01   1.00800           0
     20651 MEMB     178      SLPC     H4Y      HAL2     0.900000E-01   1.00800           0
     20652 MEMB     178      SLPC     C35      CTL2    -0.180000       12.0110           0
     20653 MEMB     178      SLPC     H5X      HAL2     0.900000E-01   1.00800           0
     20654 MEMB     178      SLPC     H5Y      HAL2     0.900000E-01   1.00800           0
     20655 MEMB     178      SLPC     C36      CTL2    -0.180000       12.0110           0
     20656 MEMB     178      SLPC     H6X      HAL2     0.900000E-01   1.00800           0
     20657 MEMB     178      SLPC     H6Y      HAL2     0.900000E-01   1.00800           0
     20658 MEMB     178      SLPC     C37      CTL2    -0.180000       12.0110           0
     20659 MEMB     178      SLPC     H7X      HAL2     0.900000E-01   1.00800           0
     20660 MEMB     178      SLPC     H7Y      HAL2     0.900000E-01   1.00800           0
     20661 MEMB     178      SLPC     C38      CTL2    -0.180000       12.0110           0
     20662 MEMB     178      SLPC     H8X      HAL2     0.900000E-01   1.00800           0
     20663 MEMB     178      SLPC     H8Y      HAL2     0.900000E-01   1.00800           0
     20664 MEMB     178      SLPC     C39      CTL2    -0.180000       12.0110           0
     20665 MEMB     178      SLPC     H9X      HAL2     0.900000E-01   1.00800           0
     20666 MEMB     178      SLPC     H9Y      HAL2     0.900000E-01   1.00800           0
     20667 MEMB     178      SLPC     C310     CTL2    -0.180000       12.0110           0
     20668 MEMB     178      SLPC     H10X     HAL2     0.900000E-01   1.00800           0
     20669 MEMB     178      SLPC     H10Y     HAL2     0.900000E-01   1.00800           0
     20670 MEMB     178      SLPC     C311     CTL2    -0.180000       12.0110           0
     20671 MEMB     178      SLPC     H11X     HAL2     0.900000E-01   1.00800           0
     20672 MEMB     178      SLPC     H11Y     HAL2     0.900000E-01   1.00800           0
     20673 MEMB     178      SLPC     C312     CTL2    -0.180000       12.0110           0
     20674 MEMB     178      SLPC     H12X     HAL2     0.900000E-01   1.00800           0
     20675 MEMB     178      SLPC     H12Y     HAL2     0.900000E-01   1.00800           0
     20676 MEMB     178      SLPC     C313     CTL2    -0.180000       12.0110           0
     20677 MEMB     178      SLPC     H13X     HAL2     0.900000E-01   1.00800           0
     20678 MEMB     178      SLPC     H13Y     HAL2     0.900000E-01   1.00800           0
     20679 MEMB     178      SLPC     C314     CTL2    -0.180000       12.0110           0
     20680 MEMB     178      SLPC     H14X     HAL2     0.900000E-01   1.00800           0
     20681 MEMB     178      SLPC     H14Y     HAL2     0.900000E-01   1.00800           0
     20682 MEMB     178      SLPC     C315     CTL2    -0.180000       12.0110           0
     20683 MEMB     178      SLPC     H15X     HAL2     0.900000E-01   1.00800           0
     20684 MEMB     178      SLPC     H15Y     HAL2     0.900000E-01   1.00800           0
     20685 MEMB     178      SLPC     C316     CTL2    -0.180000       12.0110           0
     20686 MEMB     178      SLPC     H16X     HAL2     0.900000E-01   1.00800           0
     20687 MEMB     178      SLPC     H16Y     HAL2     0.900000E-01   1.00800           0
     20688 MEMB     178      SLPC     C317     CTL2    -0.180000       12.0110           0
     20689 MEMB     178      SLPC     H17X     HAL2     0.900000E-01   1.00800           0
     20690 MEMB     178      SLPC     H17Y     HAL2     0.900000E-01   1.00800           0
     20691 MEMB     178      SLPC     C318     CTL3    -0.270000       12.0110           0
     20692 MEMB     178      SLPC     H18X     HAL3     0.900000E-01   1.00800           0
     20693 MEMB     178      SLPC     H18Y     HAL3     0.900000E-01   1.00800           0
     20694 MEMB     178      SLPC     H18Z     HAL3     0.900000E-01   1.00800           0
     20695 MEMB     179      CHL1     C3       CRL1     0.140000       12.0110           0
     20696 MEMB     179      CHL1     H3       HGA1     0.900000E-01   1.00800           0
     20697 MEMB     179      CHL1     O3       OHL     -0.660000       15.9994           0
     20698 MEMB     179      CHL1     H3'      HOL      0.430000       1.00800           0
     20699 MEMB     179      CHL1     C4       CRL2    -0.180000       12.0110           0
     20700 MEMB     179      CHL1     H4A      HGA2     0.900000E-01   1.00800           0
     20701 MEMB     179      CHL1     H4B      HGA2     0.900000E-01   1.00800           0
     20702 MEMB     179      CHL1     C5       CEL1      0.00000       12.0110           0
     20703 MEMB     179      CHL1     C6       CEL1    -0.150000       12.0110           0
     20704 MEMB     179      CHL1     H6       HEL1     0.150000       1.00800           0
     20705 MEMB     179      CHL1     C7       CRL2    -0.180000       12.0110           0
     20706 MEMB     179      CHL1     H7A      HGA2     0.900000E-01   1.00800           0
     20707 MEMB     179      CHL1     H7B      HGA2     0.900000E-01   1.00800           0
     20708 MEMB     179      CHL1     C8       CRL1    -0.900000E-01   12.0110           0
     20709 MEMB     179      CHL1     H8       HGA1     0.900000E-01   1.00800           0
     20710 MEMB     179      CHL1     C14      CRL1    -0.900000E-01   12.0110           0
     20711 MEMB     179      CHL1     H14      HGA1     0.900000E-01   1.00800           0
     20712 MEMB     179      CHL1     C15      CRL2    -0.180000       12.0110           0
     20713 MEMB     179      CHL1     H15A     HGA2     0.900000E-01   1.00800           0
     20714 MEMB     179      CHL1     H15B     HGA2     0.900000E-01   1.00800           0
     20715 MEMB     179      CHL1     C16      CRL2    -0.180000       12.0110           0
     20716 MEMB     179      CHL1     H16A     HGA2     0.900000E-01   1.00800           0
     20717 MEMB     179      CHL1     H16B     HGA2     0.900000E-01   1.00800           0
     20718 MEMB     179      CHL1     C17      CRL1    -0.900000E-01   12.0110           0
     20719 MEMB     179      CHL1     H17      HGA1     0.900000E-01   1.00800           0
     20720 MEMB     179      CHL1     C13      CRL1      0.00000       12.0110           0
     20721 MEMB     179      CHL1     C18      CTL3    -0.270000       12.0110           0
     20722 MEMB     179      CHL1     H18A     HAL3     0.900000E-01   1.00800           0
     20723 MEMB     179      CHL1     H18B     HAL3     0.900000E-01   1.00800           0
     20724 MEMB     179      CHL1     H18C     HAL3     0.900000E-01   1.00800           0
     20725 MEMB     179      CHL1     C12      CRL2    -0.180000       12.0110           0
     20726 MEMB     179      CHL1     H12A     HGA2     0.900000E-01   1.00800           0
     20727 MEMB     179      CHL1     H12B     HGA2     0.900000E-01   1.00800           0
     20728 MEMB     179      CHL1     C11      CRL2    -0.180000       12.0110           0
     20729 MEMB     179      CHL1     H11A     HGA2     0.900000E-01   1.00800           0
     20730 MEMB     179      CHL1     H11B     HGA2     0.900000E-01   1.00800           0
     20731 MEMB     179      CHL1     C9       CRL1    -0.900000E-01   12.0110           0
     20732 MEMB     179      CHL1     H9       HGA1     0.900000E-01   1.00800           0
     20733 MEMB     179      CHL1     C10      CRL1      0.00000       12.0110           0
     20734 MEMB     179      CHL1     C19      CTL3    -0.270000       12.0110           0
     20735 MEMB     179      CHL1     H19A     HAL3     0.900000E-01   1.00800           0
     20736 MEMB     179      CHL1     H19B     HAL3     0.900000E-01   1.00800           0
     20737 MEMB     179      CHL1     H19C     HAL3     0.900000E-01   1.00800           0
     20738 MEMB     179      CHL1     C1       CRL2    -0.180000       12.0110           0
     20739 MEMB     179      CHL1     H1A      HGA2     0.900000E-01   1.00800           0
     20740 MEMB     179      CHL1     H1B      HGA2     0.900000E-01   1.00800           0
     20741 MEMB     179      CHL1     C2       CRL2    -0.180000       12.0110           0
     20742 MEMB     179      CHL1     H2A      HGA2     0.900000E-01   1.00800           0
     20743 MEMB     179      CHL1     H2B      HGA2     0.900000E-01   1.00800           0
     20744 MEMB     179      CHL1     C20      CTL1    -0.900000E-01   12.0110           0
     20745 MEMB     179      CHL1     H20      HAL1     0.900000E-01   1.00800           0
     20746 MEMB     179      CHL1     C21      CTL3    -0.270000       12.0110           0
     20747 MEMB     179      CHL1     H21A     HAL3     0.900000E-01   1.00800           0
     20748 MEMB     179      CHL1     H21B     HAL3     0.900000E-01   1.00800           0
     20749 MEMB     179      CHL1     H21C     HAL3     0.900000E-01   1.00800           0
     20750 MEMB     179      CHL1     C22      CTL2    -0.180000       12.0110           0
     20751 MEMB     179      CHL1     H22A     HAL2     0.900000E-01   1.00800           0
     20752 MEMB     179      CHL1     H22B     HAL2     0.900000E-01   1.00800           0
     20753 MEMB     179      CHL1     C23      CTL2    -0.180000       12.0110           0
     20754 MEMB     179      CHL1     H23A     HAL2     0.900000E-01   1.00800           0
     20755 MEMB     179      CHL1     H23B     HAL2     0.900000E-01   1.00800           0
     20756 MEMB     179      CHL1     C24      CTL2    -0.180000       12.0110           0
     20757 MEMB     179      CHL1     H24A     HAL2     0.900000E-01   1.00800           0
     20758 MEMB     179      CHL1     H24B     HAL2     0.900000E-01   1.00800           0
     20759 MEMB     179      CHL1     C25      CTL1    -0.900000E-01   12.0110           0
     20760 MEMB     179      CHL1     H25      HAL1     0.900000E-01   1.00800           0
     20761 MEMB     179      CHL1     C26      CTL3    -0.270000       12.0110           0
     20762 MEMB     179      CHL1     H26A     HAL3     0.900000E-01   1.00800           0
     20763 MEMB     179      CHL1     H26B     HAL3     0.900000E-01   1.00800           0
     20764 MEMB     179      CHL1     H26C     HAL3     0.900000E-01   1.00800           0
     20765 MEMB     179      CHL1     C27      CTL3    -0.270000       12.0110           0
     20766 MEMB     179      CHL1     H27A     HAL3     0.900000E-01   1.00800           0
     20767 MEMB     179      CHL1     H27B     HAL3     0.900000E-01   1.00800           0
     20768 MEMB     179      CHL1     H27C     HAL3     0.900000E-01   1.00800           0
     20769 MEMB     180      SAPE     N        NH3L    -0.300000       14.0070           0
     20770 MEMB     180      SAPE     HN1      HCL      0.330000       1.00800           0
     20771 MEMB     180      SAPE     HN2      HCL      0.330000       1.00800           0
     20772 MEMB     180      SAPE     HN3      HCL      0.330000       1.00800           0
     20773 MEMB     180      SAPE     C12      CTL2     0.130000       12.0110           0
     20774 MEMB     180      SAPE     H12A     HAL2     0.900000E-01   1.00800           0
     20775 MEMB     180      SAPE     H12B     HAL2     0.900000E-01   1.00800           0
     20776 MEMB     180      SAPE     C11      CTL2    -0.800000E-01   12.0110           0
     20777 MEMB     180      SAPE     H11A     HAL2     0.900000E-01   1.00800           0
     20778 MEMB     180      SAPE     H11B     HAL2     0.900000E-01   1.00800           0
     20779 MEMB     180      SAPE     P        PL        1.50000       30.9740           0
     20780 MEMB     180      SAPE     O13      O2L     -0.780000       15.9994           0
     20781 MEMB     180      SAPE     O14      O2L     -0.780000       15.9994           0
     20782 MEMB     180      SAPE     O12      OSLP    -0.570000       15.9994           0
     20783 MEMB     180      SAPE     O11      OSLP    -0.570000       15.9994           0
     20784 MEMB     180      SAPE     C1       CTL2    -0.800000E-01   12.0110           0
     20785 MEMB     180      SAPE     HA       HAL2     0.900000E-01   1.00800           0
     20786 MEMB     180      SAPE     HB       HAL2     0.900000E-01   1.00800           0
     20787 MEMB     180      SAPE     C2       CTL1     0.170000       12.0110           0
     20788 MEMB     180      SAPE     HS       HAL1     0.900000E-01   1.00800           0
     20789 MEMB     180      SAPE     O21      OSL     -0.490000       15.9994           0
     20790 MEMB     180      SAPE     C21      CL       0.900000       12.0110           0
     20791 MEMB     180      SAPE     O22      OBL     -0.630000       15.9994           0
     20792 MEMB     180      SAPE     C22      CTL2    -0.220000       12.0110           0
     20793 MEMB     180      SAPE     H2R      HAL2     0.900000E-01   1.00800           0
     20794 MEMB     180      SAPE     H2S      HAL2     0.900000E-01   1.00800           0
     20795 MEMB     180      SAPE     C3       CTL2     0.800000E-01   12.0110           0
     20796 MEMB     180      SAPE     HX       HAL2     0.900000E-01   1.00800           0
     20797 MEMB     180      SAPE     HY       HAL2     0.900000E-01   1.00800           0
     20798 MEMB     180      SAPE     O31      OSL     -0.490000       15.9994           0
     20799 MEMB     180      SAPE     C31      CL       0.900000       12.0110           0
     20800 MEMB     180      SAPE     O32      OBL     -0.630000       15.9994           0
     20801 MEMB     180      SAPE     C32      CTL2    -0.220000       12.0110           0
     20802 MEMB     180      SAPE     H2X      HAL2     0.900000E-01   1.00800           0
     20803 MEMB     180      SAPE     H2Y      HAL2     0.900000E-01   1.00800           0
     20804 MEMB     180      SAPE     C23      CTL2    -0.180000       12.0110           0
     20805 MEMB     180      SAPE     H3R      HAL2     0.900000E-01   1.00800           0
     20806 MEMB     180      SAPE     H3S      HAL2     0.900000E-01   1.00800           0
     20807 MEMB     180      SAPE     C24      CTL2    -0.180000       12.0110           0
     20808 MEMB     180      SAPE     H4R      HAL2     0.900000E-01   1.00800           0
     20809 MEMB     180      SAPE     H4S      HAL2     0.900000E-01   1.00800           0
     20810 MEMB     180      SAPE     C25      CEL1    -0.150000       12.0110           0
     20811 MEMB     180      SAPE     H5R      HEL1     0.150000       1.00800           0
     20812 MEMB     180      SAPE     C26      CEL1    -0.150000       12.0110           0
     20813 MEMB     180      SAPE     H6R      HEL1     0.150000       1.00800           0
     20814 MEMB     180      SAPE     C27      CTL2    -0.180000       12.0110           0
     20815 MEMB     180      SAPE     H7R      HAL2     0.900000E-01   1.00800           0
     20816 MEMB     180      SAPE     H7S      HAL2     0.900000E-01   1.00800           0
     20817 MEMB     180      SAPE     C28      CEL1    -0.150000       12.0110           0
     20818 MEMB     180      SAPE     H8R      HEL1     0.150000       1.00800           0
     20819 MEMB     180      SAPE     C29      CEL1    -0.150000       12.0110           0
     20820 MEMB     180      SAPE     H9R      HEL1     0.150000       1.00800           0
     20821 MEMB     180      SAPE     C210     CTL2    -0.180000       12.0110           0
     20822 MEMB     180      SAPE     H10R     HAL2     0.900000E-01   1.00800           0
     20823 MEMB     180      SAPE     H10S     HAL2     0.900000E-01   1.00800           0
     20824 MEMB     180      SAPE     C211     CEL1    -0.150000       12.0110           0
     20825 MEMB     180      SAPE     H11R     HEL1     0.150000       1.00800           0
     20826 MEMB     180      SAPE     C212     CEL1    -0.150000       12.0110           0
     20827 MEMB     180      SAPE     H12R     HEL1     0.150000       1.00800           0
     20828 MEMB     180      SAPE     C213     CTL2    -0.180000       12.0110           0
     20829 MEMB     180      SAPE     H13R     HAL2     0.900000E-01   1.00800           0
     20830 MEMB     180      SAPE     H13S     HAL2     0.900000E-01   1.00800           0
     20831 MEMB     180      SAPE     C214     CEL1    -0.150000       12.0110           0
     20832 MEMB     180      SAPE     H14R     HEL1     0.150000       1.00800           0
     20833 MEMB     180      SAPE     C215     CEL1    -0.150000       12.0110           0
     20834 MEMB     180      SAPE     H15R     HEL1     0.150000       1.00800           0
     20835 MEMB     180      SAPE     C216     CTL2    -0.180000       12.0110           0
     20836 MEMB     180      SAPE     H16R     HAL2     0.900000E-01   1.00800           0
     20837 MEMB     180      SAPE     H16S     HAL2     0.900000E-01   1.00800           0
     20838 MEMB     180      SAPE     C217     CTL2    -0.180000       12.0110           0
     20839 MEMB     180      SAPE     H17R     HAL2     0.900000E-01   1.00800           0
     20840 MEMB     180      SAPE     H17S     HAL2     0.900000E-01   1.00800           0
     20841 MEMB     180      SAPE     C218     CTL2    -0.180000       12.0110           0
     20842 MEMB     180      SAPE     H18R     HAL2     0.900000E-01   1.00800           0
     20843 MEMB     180      SAPE     H18S     HAL2     0.900000E-01   1.00800           0
     20844 MEMB     180      SAPE     C219     CTL2    -0.180000       12.0110           0
     20845 MEMB     180      SAPE     H19R     HAL2     0.900000E-01   1.00800           0
     20846 MEMB     180      SAPE     H19S     HAL2     0.900000E-01   1.00800           0
     20847 MEMB     180      SAPE     C220     CTL3    -0.270000       12.0110           0
     20848 MEMB     180      SAPE     H20R     HAL3     0.900000E-01   1.00800           0
     20849 MEMB     180      SAPE     H20S     HAL3     0.900000E-01   1.00800           0
     20850 MEMB     180      SAPE     H20T     HAL3     0.900000E-01   1.00800           0
     20851 MEMB     180      SAPE     C33      CTL2    -0.180000       12.0110           0
     20852 MEMB     180      SAPE     H3X      HAL2     0.900000E-01   1.00800           0
     20853 MEMB     180      SAPE     H3Y      HAL2     0.900000E-01   1.00800           0
     20854 MEMB     180      SAPE     C34      CTL2    -0.180000       12.0110           0
     20855 MEMB     180      SAPE     H4X      HAL2     0.900000E-01   1.00800           0
     20856 MEMB     180      SAPE     H4Y      HAL2     0.900000E-01   1.00800           0
     20857 MEMB     180      SAPE     C35      CTL2    -0.180000       12.0110           0
     20858 MEMB     180      SAPE     H5X      HAL2     0.900000E-01   1.00800           0
     20859 MEMB     180      SAPE     H5Y      HAL2     0.900000E-01   1.00800           0
     20860 MEMB     180      SAPE     C36      CTL2    -0.180000       12.0110           0
     20861 MEMB     180      SAPE     H6X      HAL2     0.900000E-01   1.00800           0
     20862 MEMB     180      SAPE     H6Y      HAL2     0.900000E-01   1.00800           0
     20863 MEMB     180      SAPE     C37      CTL2    -0.180000       12.0110           0
     20864 MEMB     180      SAPE     H7X      HAL2     0.900000E-01   1.00800           0
     20865 MEMB     180      SAPE     H7Y      HAL2     0.900000E-01   1.00800           0
     20866 MEMB     180      SAPE     C38      CTL2    -0.180000       12.0110           0
     20867 MEMB     180      SAPE     H8X      HAL2     0.900000E-01   1.00800           0
     20868 MEMB     180      SAPE     H8Y      HAL2     0.900000E-01   1.00800           0
     20869 MEMB     180      SAPE     C39      CTL2    -0.180000       12.0110           0
     20870 MEMB     180      SAPE     H9X      HAL2     0.900000E-01   1.00800           0
     20871 MEMB     180      SAPE     H9Y      HAL2     0.900000E-01   1.00800           0
     20872 MEMB     180      SAPE     C310     CTL2    -0.180000       12.0110           0
     20873 MEMB     180      SAPE     H10X     HAL2     0.900000E-01   1.00800           0
     20874 MEMB     180      SAPE     H10Y     HAL2     0.900000E-01   1.00800           0
     20875 MEMB     180      SAPE     C311     CTL2    -0.180000       12.0110           0
     20876 MEMB     180      SAPE     H11X     HAL2     0.900000E-01   1.00800           0
     20877 MEMB     180      SAPE     H11Y     HAL2     0.900000E-01   1.00800           0
     20878 MEMB     180      SAPE     C312     CTL2    -0.180000       12.0110           0
     20879 MEMB     180      SAPE     H12X     HAL2     0.900000E-01   1.00800           0
     20880 MEMB     180      SAPE     H12Y     HAL2     0.900000E-01   1.00800           0
     20881 MEMB     180      SAPE     C313     CTL2    -0.180000       12.0110           0
     20882 MEMB     180      SAPE     H13X     HAL2     0.900000E-01   1.00800           0
     20883 MEMB     180      SAPE     H13Y     HAL2     0.900000E-01   1.00800           0
     20884 MEMB     180      SAPE     C314     CTL2    -0.180000       12.0110           0
     20885 MEMB     180      SAPE     H14X     HAL2     0.900000E-01   1.00800           0
     20886 MEMB     180      SAPE     H14Y     HAL2     0.900000E-01   1.00800           0
     20887 MEMB     180      SAPE     C315     CTL2    -0.180000       12.0110           0
     20888 MEMB     180      SAPE     H15X     HAL2     0.900000E-01   1.00800           0
     20889 MEMB     180      SAPE     H15Y     HAL2     0.900000E-01   1.00800           0
     20890 MEMB     180      SAPE     C316     CTL2    -0.180000       12.0110           0
     20891 MEMB     180      SAPE     H16X     HAL2     0.900000E-01   1.00800           0
     20892 MEMB     180      SAPE     H16Y     HAL2     0.900000E-01   1.00800           0
     20893 MEMB     180      SAPE     C317     CTL2    -0.180000       12.0110           0
     20894 MEMB     180      SAPE     H17X     HAL2     0.900000E-01   1.00800           0
     20895 MEMB     180      SAPE     H17Y     HAL2     0.900000E-01   1.00800           0
     20896 MEMB     180      SAPE     C318     CTL3    -0.270000       12.0110           0
     20897 MEMB     180      SAPE     H18X     HAL3     0.900000E-01   1.00800           0
     20898 MEMB     180      SAPE     H18Y     HAL3     0.900000E-01   1.00800           0
     20899 MEMB     180      SAPE     H18Z     HAL3     0.900000E-01   1.00800           0
     20900 MEMB     181      SOPE     N        NH3L    -0.300000       14.0070           0
     20901 MEMB     181      SOPE     HN1      HCL      0.330000       1.00800           0
     20902 MEMB     181      SOPE     HN2      HCL      0.330000       1.00800           0
     20903 MEMB     181      SOPE     HN3      HCL      0.330000       1.00800           0
     20904 MEMB     181      SOPE     C12      CTL2     0.130000       12.0110           0
     20905 MEMB     181      SOPE     H12A     HAL2     0.900000E-01   1.00800           0
     20906 MEMB     181      SOPE     H12B     HAL2     0.900000E-01   1.00800           0
     20907 MEMB     181      SOPE     C11      CTL2    -0.800000E-01   12.0110           0
     20908 MEMB     181      SOPE     H11A     HAL2     0.900000E-01   1.00800           0
     20909 MEMB     181      SOPE     H11B     HAL2     0.900000E-01   1.00800           0
     20910 MEMB     181      SOPE     P        PL        1.50000       30.9740           0
     20911 MEMB     181      SOPE     O13      O2L     -0.780000       15.9994           0
     20912 MEMB     181      SOPE     O14      O2L     -0.780000       15.9994           0
     20913 MEMB     181      SOPE     O12      OSLP    -0.570000       15.9994           0
     20914 MEMB     181      SOPE     O11      OSLP    -0.570000       15.9994           0
     20915 MEMB     181      SOPE     C1       CTL2    -0.800000E-01   12.0110           0
     20916 MEMB     181      SOPE     HA       HAL2     0.900000E-01   1.00800           0
     20917 MEMB     181      SOPE     HB       HAL2     0.900000E-01   1.00800           0
     20918 MEMB     181      SOPE     C2       CTL1     0.170000       12.0110           0
     20919 MEMB     181      SOPE     HS       HAL1     0.900000E-01   1.00800           0
     20920 MEMB     181      SOPE     O21      OSL     -0.490000       15.9994           0
     20921 MEMB     181      SOPE     C21      CL       0.900000       12.0110           0
     20922 MEMB     181      SOPE     O22      OBL     -0.630000       15.9994           0
     20923 MEMB     181      SOPE     C22      CTL2    -0.220000       12.0110           0
     20924 MEMB     181      SOPE     H2R      HAL2     0.900000E-01   1.00800           0
     20925 MEMB     181      SOPE     H2S      HAL2     0.900000E-01   1.00800           0
     20926 MEMB     181      SOPE     C3       CTL2     0.800000E-01   12.0110           0
     20927 MEMB     181      SOPE     HX       HAL2     0.900000E-01   1.00800           0
     20928 MEMB     181      SOPE     HY       HAL2     0.900000E-01   1.00800           0
     20929 MEMB     181      SOPE     O31      OSL     -0.490000       15.9994           0
     20930 MEMB     181      SOPE     C31      CL       0.900000       12.0110           0
     20931 MEMB     181      SOPE     O32      OBL     -0.630000       15.9994           0
     20932 MEMB     181      SOPE     C32      CTL2    -0.220000       12.0110           0
     20933 MEMB     181      SOPE     H2X      HAL2     0.900000E-01   1.00800           0
     20934 MEMB     181      SOPE     H2Y      HAL2     0.900000E-01   1.00800           0
     20935 MEMB     181      SOPE     C23      CTL2    -0.180000       12.0110           0
     20936 MEMB     181      SOPE     H3R      HAL2     0.900000E-01   1.00800           0
     20937 MEMB     181      SOPE     H3S      HAL2     0.900000E-01   1.00800           0
     20938 MEMB     181      SOPE     C24      CTL2    -0.180000       12.0110           0
     20939 MEMB     181      SOPE     H4R      HAL2     0.900000E-01   1.00800           0
     20940 MEMB     181      SOPE     H4S      HAL2     0.900000E-01   1.00800           0
     20941 MEMB     181      SOPE     C25      CTL2    -0.180000       12.0110           0
     20942 MEMB     181      SOPE     H5R      HAL2     0.900000E-01   1.00800           0
     20943 MEMB     181      SOPE     H5S      HAL2     0.900000E-01   1.00800           0
     20944 MEMB     181      SOPE     C26      CTL2    -0.180000       12.0110           0
     20945 MEMB     181      SOPE     H6R      HAL2     0.900000E-01   1.00800           0
     20946 MEMB     181      SOPE     H6S      HAL2     0.900000E-01   1.00800           0
     20947 MEMB     181      SOPE     C27      CTL2    -0.180000       12.0110           0
     20948 MEMB     181      SOPE     H7R      HAL2     0.900000E-01   1.00800           0
     20949 MEMB     181      SOPE     H7S      HAL2     0.900000E-01   1.00800           0
     20950 MEMB     181      SOPE     C28      CTL2    -0.180000       12.0110           0
     20951 MEMB     181      SOPE     H8R      HAL2     0.900000E-01   1.00800           0
     20952 MEMB     181      SOPE     H8S      HAL2     0.900000E-01   1.00800           0
     20953 MEMB     181      SOPE     C29      CEL1    -0.150000       12.0110           0
     20954 MEMB     181      SOPE     H91      HEL1     0.150000       1.00800           0
     20955 MEMB     181      SOPE     C210     CEL1    -0.150000       12.0110           0
     20956 MEMB     181      SOPE     H101     HEL1     0.150000       1.00800           0
     20957 MEMB     181      SOPE     C211     CTL2    -0.180000       12.0110           0
     20958 MEMB     181      SOPE     H11R     HAL2     0.900000E-01   1.00800           0
     20959 MEMB     181      SOPE     H11S     HAL2     0.900000E-01   1.00800           0
     20960 MEMB     181      SOPE     C212     CTL2    -0.180000       12.0110           0
     20961 MEMB     181      SOPE     H12R     HAL2     0.900000E-01   1.00800           0
     20962 MEMB     181      SOPE     H12S     HAL2     0.900000E-01   1.00800           0
     20963 MEMB     181      SOPE     C213     CTL2    -0.180000       12.0110           0
     20964 MEMB     181      SOPE     H13R     HAL2     0.900000E-01   1.00800           0
     20965 MEMB     181      SOPE     H13S     HAL2     0.900000E-01   1.00800           0
     20966 MEMB     181      SOPE     C214     CTL2    -0.180000       12.0110           0
     20967 MEMB     181      SOPE     H14R     HAL2     0.900000E-01   1.00800           0
     20968 MEMB     181      SOPE     H14S     HAL2     0.900000E-01   1.00800           0
     20969 MEMB     181      SOPE     C215     CTL2    -0.180000       12.0110           0
     20970 MEMB     181      SOPE     H15R     HAL2     0.900000E-01   1.00800           0
     20971 MEMB     181      SOPE     H15S     HAL2     0.900000E-01   1.00800           0
     20972 MEMB     181      SOPE     C216     CTL2    -0.180000       12.0110           0
     20973 MEMB     181      SOPE     H16R     HAL2     0.900000E-01   1.00800           0
     20974 MEMB     181      SOPE     H16S     HAL2     0.900000E-01   1.00800           0
     20975 MEMB     181      SOPE     C217     CTL2    -0.180000       12.0110           0
     20976 MEMB     181      SOPE     H17R     HAL2     0.900000E-01   1.00800           0
     20977 MEMB     181      SOPE     H17S     HAL2     0.900000E-01   1.00800           0
     20978 MEMB     181      SOPE     C218     CTL3    -0.270000       12.0110           0
     20979 MEMB     181      SOPE     H18R     HAL3     0.900000E-01   1.00800           0
     20980 MEMB     181      SOPE     H18S     HAL3     0.900000E-01   1.00800           0
     20981 MEMB     181      SOPE     H18T     HAL3     0.900000E-01   1.00800           0
     20982 MEMB     181      SOPE     C33      CTL2    -0.180000       12.0110           0
     20983 MEMB     181      SOPE     H3X      HAL2     0.900000E-01   1.00800           0
     20984 MEMB     181      SOPE     H3Y      HAL2     0.900000E-01   1.00800           0
     20985 MEMB     181      SOPE     C34      CTL2    -0.180000       12.0110           0
     20986 MEMB     181      SOPE     H4X      HAL2     0.900000E-01   1.00800           0
     20987 MEMB     181      SOPE     H4Y      HAL2     0.900000E-01   1.00800           0
     20988 MEMB     181      SOPE     C35      CTL2    -0.180000       12.0110           0
     20989 MEMB     181      SOPE     H5X      HAL2     0.900000E-01   1.00800           0
     20990 MEMB     181      SOPE     H5Y      HAL2     0.900000E-01   1.00800           0
     20991 MEMB     181      SOPE     C36      CTL2    -0.180000       12.0110           0
     20992 MEMB     181      SOPE     H6X      HAL2     0.900000E-01   1.00800           0
     20993 MEMB     181      SOPE     H6Y      HAL2     0.900000E-01   1.00800           0
     20994 MEMB     181      SOPE     C37      CTL2    -0.180000       12.0110           0
     20995 MEMB     181      SOPE     H7X      HAL2     0.900000E-01   1.00800           0
     20996 MEMB     181      SOPE     H7Y      HAL2     0.900000E-01   1.00800           0
     20997 MEMB     181      SOPE     C38      CTL2    -0.180000       12.0110           0
     20998 MEMB     181      SOPE     H8X      HAL2     0.900000E-01   1.00800           0
     20999 MEMB     181      SOPE     H8Y      HAL2     0.900000E-01   1.00800           0
     21000 MEMB     181      SOPE     C39      CTL2    -0.180000       12.0110           0
     21001 MEMB     181      SOPE     H9X      HAL2     0.900000E-01   1.00800           0
     21002 MEMB     181      SOPE     H9Y      HAL2     0.900000E-01   1.00800           0
     21003 MEMB     181      SOPE     C310     CTL2    -0.180000       12.0110           0
     21004 MEMB     181      SOPE     H10X     HAL2     0.900000E-01   1.00800           0
     21005 MEMB     181      SOPE     H10Y     HAL2     0.900000E-01   1.00800           0
     21006 MEMB     181      SOPE     C311     CTL2    -0.180000       12.0110           0
     21007 MEMB     181      SOPE     H11X     HAL2     0.900000E-01   1.00800           0
     21008 MEMB     181      SOPE     H11Y     HAL2     0.900000E-01   1.00800           0
     21009 MEMB     181      SOPE     C312     CTL2    -0.180000       12.0110           0
     21010 MEMB     181      SOPE     H12X     HAL2     0.900000E-01   1.00800           0
     21011 MEMB     181      SOPE     H12Y     HAL2     0.900000E-01   1.00800           0
     21012 MEMB     181      SOPE     C313     CTL2    -0.180000       12.0110           0
     21013 MEMB     181      SOPE     H13X     HAL2     0.900000E-01   1.00800           0
     21014 MEMB     181      SOPE     H13Y     HAL2     0.900000E-01   1.00800           0
     21015 MEMB     181      SOPE     C314     CTL2    -0.180000       12.0110           0
     21016 MEMB     181      SOPE     H14X     HAL2     0.900000E-01   1.00800           0
     21017 MEMB     181      SOPE     H14Y     HAL2     0.900000E-01   1.00800           0
     21018 MEMB     181      SOPE     C315     CTL2    -0.180000       12.0110           0
     21019 MEMB     181      SOPE     H15X     HAL2     0.900000E-01   1.00800           0
     21020 MEMB     181      SOPE     H15Y     HAL2     0.900000E-01   1.00800           0
     21021 MEMB     181      SOPE     C316     CTL2    -0.180000       12.0110           0
     21022 MEMB     181      SOPE     H16X     HAL2     0.900000E-01   1.00800           0
     21023 MEMB     181      SOPE     H16Y     HAL2     0.900000E-01   1.00800           0
     21024 MEMB     181      SOPE     C317     CTL2    -0.180000       12.0110           0
     21025 MEMB     181      SOPE     H17X     HAL2     0.900000E-01   1.00800           0
     21026 MEMB     181      SOPE     H17Y     HAL2     0.900000E-01   1.00800           0
     21027 MEMB     181      SOPE     C318     CTL3    -0.270000       12.0110           0
     21028 MEMB     181      SOPE     H18X     HAL3     0.900000E-01   1.00800           0
     21029 MEMB     181      SOPE     H18Y     HAL3     0.900000E-01   1.00800           0
     21030 MEMB     181      SOPE     H18Z     HAL3     0.900000E-01   1.00800           0
     21031 MEMB     182      SOPE     N        NH3L    -0.300000       14.0070           0
     21032 MEMB     182      SOPE     HN1      HCL      0.330000       1.00800           0
     21033 MEMB     182      SOPE     HN2      HCL      0.330000       1.00800           0
     21034 MEMB     182      SOPE     HN3      HCL      0.330000       1.00800           0
     21035 MEMB     182      SOPE     C12      CTL2     0.130000       12.0110           0
     21036 MEMB     182      SOPE     H12A     HAL2     0.900000E-01   1.00800           0
     21037 MEMB     182      SOPE     H12B     HAL2     0.900000E-01   1.00800           0
     21038 MEMB     182      SOPE     C11      CTL2    -0.800000E-01   12.0110           0
     21039 MEMB     182      SOPE     H11A     HAL2     0.900000E-01   1.00800           0
     21040 MEMB     182      SOPE     H11B     HAL2     0.900000E-01   1.00800           0
     21041 MEMB     182      SOPE     P        PL        1.50000       30.9740           0
     21042 MEMB     182      SOPE     O13      O2L     -0.780000       15.9994           0
     21043 MEMB     182      SOPE     O14      O2L     -0.780000       15.9994           0
     21044 MEMB     182      SOPE     O12      OSLP    -0.570000       15.9994           0
     21045 MEMB     182      SOPE     O11      OSLP    -0.570000       15.9994           0
     21046 MEMB     182      SOPE     C1       CTL2    -0.800000E-01   12.0110           0
     21047 MEMB     182      SOPE     HA       HAL2     0.900000E-01   1.00800           0
     21048 MEMB     182      SOPE     HB       HAL2     0.900000E-01   1.00800           0
     21049 MEMB     182      SOPE     C2       CTL1     0.170000       12.0110           0
     21050 MEMB     182      SOPE     HS       HAL1     0.900000E-01   1.00800           0
     21051 MEMB     182      SOPE     O21      OSL     -0.490000       15.9994           0
     21052 MEMB     182      SOPE     C21      CL       0.900000       12.0110           0
     21053 MEMB     182      SOPE     O22      OBL     -0.630000       15.9994           0
     21054 MEMB     182      SOPE     C22      CTL2    -0.220000       12.0110           0
     21055 MEMB     182      SOPE     H2R      HAL2     0.900000E-01   1.00800           0
     21056 MEMB     182      SOPE     H2S      HAL2     0.900000E-01   1.00800           0
     21057 MEMB     182      SOPE     C3       CTL2     0.800000E-01   12.0110           0
     21058 MEMB     182      SOPE     HX       HAL2     0.900000E-01   1.00800           0
     21059 MEMB     182      SOPE     HY       HAL2     0.900000E-01   1.00800           0
     21060 MEMB     182      SOPE     O31      OSL     -0.490000       15.9994           0
     21061 MEMB     182      SOPE     C31      CL       0.900000       12.0110           0
     21062 MEMB     182      SOPE     O32      OBL     -0.630000       15.9994           0
     21063 MEMB     182      SOPE     C32      CTL2    -0.220000       12.0110           0
     21064 MEMB     182      SOPE     H2X      HAL2     0.900000E-01   1.00800           0
     21065 MEMB     182      SOPE     H2Y      HAL2     0.900000E-01   1.00800           0
     21066 MEMB     182      SOPE     C23      CTL2    -0.180000       12.0110           0
     21067 MEMB     182      SOPE     H3R      HAL2     0.900000E-01   1.00800           0
     21068 MEMB     182      SOPE     H3S      HAL2     0.900000E-01   1.00800           0
     21069 MEMB     182      SOPE     C24      CTL2    -0.180000       12.0110           0
     21070 MEMB     182      SOPE     H4R      HAL2     0.900000E-01   1.00800           0
     21071 MEMB     182      SOPE     H4S      HAL2     0.900000E-01   1.00800           0
     21072 MEMB     182      SOPE     C25      CTL2    -0.180000       12.0110           0
     21073 MEMB     182      SOPE     H5R      HAL2     0.900000E-01   1.00800           0
     21074 MEMB     182      SOPE     H5S      HAL2     0.900000E-01   1.00800           0
     21075 MEMB     182      SOPE     C26      CTL2    -0.180000       12.0110           0
     21076 MEMB     182      SOPE     H6R      HAL2     0.900000E-01   1.00800           0
     21077 MEMB     182      SOPE     H6S      HAL2     0.900000E-01   1.00800           0
     21078 MEMB     182      SOPE     C27      CTL2    -0.180000       12.0110           0
     21079 MEMB     182      SOPE     H7R      HAL2     0.900000E-01   1.00800           0
     21080 MEMB     182      SOPE     H7S      HAL2     0.900000E-01   1.00800           0
     21081 MEMB     182      SOPE     C28      CTL2    -0.180000       12.0110           0
     21082 MEMB     182      SOPE     H8R      HAL2     0.900000E-01   1.00800           0
     21083 MEMB     182      SOPE     H8S      HAL2     0.900000E-01   1.00800           0
     21084 MEMB     182      SOPE     C29      CEL1    -0.150000       12.0110           0
     21085 MEMB     182      SOPE     H91      HEL1     0.150000       1.00800           0
     21086 MEMB     182      SOPE     C210     CEL1    -0.150000       12.0110           0
     21087 MEMB     182      SOPE     H101     HEL1     0.150000       1.00800           0
     21088 MEMB     182      SOPE     C211     CTL2    -0.180000       12.0110           0
     21089 MEMB     182      SOPE     H11R     HAL2     0.900000E-01   1.00800           0
     21090 MEMB     182      SOPE     H11S     HAL2     0.900000E-01   1.00800           0
     21091 MEMB     182      SOPE     C212     CTL2    -0.180000       12.0110           0
     21092 MEMB     182      SOPE     H12R     HAL2     0.900000E-01   1.00800           0
     21093 MEMB     182      SOPE     H12S     HAL2     0.900000E-01   1.00800           0
     21094 MEMB     182      SOPE     C213     CTL2    -0.180000       12.0110           0
     21095 MEMB     182      SOPE     H13R     HAL2     0.900000E-01   1.00800           0
     21096 MEMB     182      SOPE     H13S     HAL2     0.900000E-01   1.00800           0
     21097 MEMB     182      SOPE     C214     CTL2    -0.180000       12.0110           0
     21098 MEMB     182      SOPE     H14R     HAL2     0.900000E-01   1.00800           0
     21099 MEMB     182      SOPE     H14S     HAL2     0.900000E-01   1.00800           0
     21100 MEMB     182      SOPE     C215     CTL2    -0.180000       12.0110           0
     21101 MEMB     182      SOPE     H15R     HAL2     0.900000E-01   1.00800           0
     21102 MEMB     182      SOPE     H15S     HAL2     0.900000E-01   1.00800           0
     21103 MEMB     182      SOPE     C216     CTL2    -0.180000       12.0110           0
     21104 MEMB     182      SOPE     H16R     HAL2     0.900000E-01   1.00800           0
     21105 MEMB     182      SOPE     H16S     HAL2     0.900000E-01   1.00800           0
     21106 MEMB     182      SOPE     C217     CTL2    -0.180000       12.0110           0
     21107 MEMB     182      SOPE     H17R     HAL2     0.900000E-01   1.00800           0
     21108 MEMB     182      SOPE     H17S     HAL2     0.900000E-01   1.00800           0
     21109 MEMB     182      SOPE     C218     CTL3    -0.270000       12.0110           0
     21110 MEMB     182      SOPE     H18R     HAL3     0.900000E-01   1.00800           0
     21111 MEMB     182      SOPE     H18S     HAL3     0.900000E-01   1.00800           0
     21112 MEMB     182      SOPE     H18T     HAL3     0.900000E-01   1.00800           0
     21113 MEMB     182      SOPE     C33      CTL2    -0.180000       12.0110           0
     21114 MEMB     182      SOPE     H3X      HAL2     0.900000E-01   1.00800           0
     21115 MEMB     182      SOPE     H3Y      HAL2     0.900000E-01   1.00800           0
     21116 MEMB     182      SOPE     C34      CTL2    -0.180000       12.0110           0
     21117 MEMB     182      SOPE     H4X      HAL2     0.900000E-01   1.00800           0
     21118 MEMB     182      SOPE     H4Y      HAL2     0.900000E-01   1.00800           0
     21119 MEMB     182      SOPE     C35      CTL2    -0.180000       12.0110           0
     21120 MEMB     182      SOPE     H5X      HAL2     0.900000E-01   1.00800           0
     21121 MEMB     182      SOPE     H5Y      HAL2     0.900000E-01   1.00800           0
     21122 MEMB     182      SOPE     C36      CTL2    -0.180000       12.0110           0
     21123 MEMB     182      SOPE     H6X      HAL2     0.900000E-01   1.00800           0
     21124 MEMB     182      SOPE     H6Y      HAL2     0.900000E-01   1.00800           0
     21125 MEMB     182      SOPE     C37      CTL2    -0.180000       12.0110           0
     21126 MEMB     182      SOPE     H7X      HAL2     0.900000E-01   1.00800           0
     21127 MEMB     182      SOPE     H7Y      HAL2     0.900000E-01   1.00800           0
     21128 MEMB     182      SOPE     C38      CTL2    -0.180000       12.0110           0
     21129 MEMB     182      SOPE     H8X      HAL2     0.900000E-01   1.00800           0
     21130 MEMB     182      SOPE     H8Y      HAL2     0.900000E-01   1.00800           0
     21131 MEMB     182      SOPE     C39      CTL2    -0.180000       12.0110           0
     21132 MEMB     182      SOPE     H9X      HAL2     0.900000E-01   1.00800           0
     21133 MEMB     182      SOPE     H9Y      HAL2     0.900000E-01   1.00800           0
     21134 MEMB     182      SOPE     C310     CTL2    -0.180000       12.0110           0
     21135 MEMB     182      SOPE     H10X     HAL2     0.900000E-01   1.00800           0
     21136 MEMB     182      SOPE     H10Y     HAL2     0.900000E-01   1.00800           0
     21137 MEMB     182      SOPE     C311     CTL2    -0.180000       12.0110           0
     21138 MEMB     182      SOPE     H11X     HAL2     0.900000E-01   1.00800           0
     21139 MEMB     182      SOPE     H11Y     HAL2     0.900000E-01   1.00800           0
     21140 MEMB     182      SOPE     C312     CTL2    -0.180000       12.0110           0
     21141 MEMB     182      SOPE     H12X     HAL2     0.900000E-01   1.00800           0
     21142 MEMB     182      SOPE     H12Y     HAL2     0.900000E-01   1.00800           0
     21143 MEMB     182      SOPE     C313     CTL2    -0.180000       12.0110           0
     21144 MEMB     182      SOPE     H13X     HAL2     0.900000E-01   1.00800           0
     21145 MEMB     182      SOPE     H13Y     HAL2     0.900000E-01   1.00800           0
     21146 MEMB     182      SOPE     C314     CTL2    -0.180000       12.0110           0
     21147 MEMB     182      SOPE     H14X     HAL2     0.900000E-01   1.00800           0
     21148 MEMB     182      SOPE     H14Y     HAL2     0.900000E-01   1.00800           0
     21149 MEMB     182      SOPE     C315     CTL2    -0.180000       12.0110           0
     21150 MEMB     182      SOPE     H15X     HAL2     0.900000E-01   1.00800           0
     21151 MEMB     182      SOPE     H15Y     HAL2     0.900000E-01   1.00800           0
     21152 MEMB     182      SOPE     C316     CTL2    -0.180000       12.0110           0
     21153 MEMB     182      SOPE     H16X     HAL2     0.900000E-01   1.00800           0
     21154 MEMB     182      SOPE     H16Y     HAL2     0.900000E-01   1.00800           0
     21155 MEMB     182      SOPE     C317     CTL2    -0.180000       12.0110           0
     21156 MEMB     182      SOPE     H17X     HAL2     0.900000E-01   1.00800           0
     21157 MEMB     182      SOPE     H17Y     HAL2     0.900000E-01   1.00800           0
     21158 MEMB     182      SOPE     C318     CTL3    -0.270000       12.0110           0
     21159 MEMB     182      SOPE     H18X     HAL3     0.900000E-01   1.00800           0
     21160 MEMB     182      SOPE     H18Y     HAL3     0.900000E-01   1.00800           0
     21161 MEMB     182      SOPE     H18Z     HAL3     0.900000E-01   1.00800           0
     21162 MEMB     183      CHL1     C3       CRL1     0.140000       12.0110           0
     21163 MEMB     183      CHL1     H3       HGA1     0.900000E-01   1.00800           0
     21164 MEMB     183      CHL1     O3       OHL     -0.660000       15.9994           0
     21165 MEMB     183      CHL1     H3'      HOL      0.430000       1.00800           0
     21166 MEMB     183      CHL1     C4       CRL2    -0.180000       12.0110           0
     21167 MEMB     183      CHL1     H4A      HGA2     0.900000E-01   1.00800           0
     21168 MEMB     183      CHL1     H4B      HGA2     0.900000E-01   1.00800           0
     21169 MEMB     183      CHL1     C5       CEL1      0.00000       12.0110           0
     21170 MEMB     183      CHL1     C6       CEL1    -0.150000       12.0110           0
     21171 MEMB     183      CHL1     H6       HEL1     0.150000       1.00800           0
     21172 MEMB     183      CHL1     C7       CRL2    -0.180000       12.0110           0
     21173 MEMB     183      CHL1     H7A      HGA2     0.900000E-01   1.00800           0
     21174 MEMB     183      CHL1     H7B      HGA2     0.900000E-01   1.00800           0
     21175 MEMB     183      CHL1     C8       CRL1    -0.900000E-01   12.0110           0
     21176 MEMB     183      CHL1     H8       HGA1     0.900000E-01   1.00800           0
     21177 MEMB     183      CHL1     C14      CRL1    -0.900000E-01   12.0110           0
     21178 MEMB     183      CHL1     H14      HGA1     0.900000E-01   1.00800           0
     21179 MEMB     183      CHL1     C15      CRL2    -0.180000       12.0110           0
     21180 MEMB     183      CHL1     H15A     HGA2     0.900000E-01   1.00800           0
     21181 MEMB     183      CHL1     H15B     HGA2     0.900000E-01   1.00800           0
     21182 MEMB     183      CHL1     C16      CRL2    -0.180000       12.0110           0
     21183 MEMB     183      CHL1     H16A     HGA2     0.900000E-01   1.00800           0
     21184 MEMB     183      CHL1     H16B     HGA2     0.900000E-01   1.00800           0
     21185 MEMB     183      CHL1     C17      CRL1    -0.900000E-01   12.0110           0
     21186 MEMB     183      CHL1     H17      HGA1     0.900000E-01   1.00800           0
     21187 MEMB     183      CHL1     C13      CRL1      0.00000       12.0110           0
     21188 MEMB     183      CHL1     C18      CTL3    -0.270000       12.0110           0
     21189 MEMB     183      CHL1     H18A     HAL3     0.900000E-01   1.00800           0
     21190 MEMB     183      CHL1     H18B     HAL3     0.900000E-01   1.00800           0
     21191 MEMB     183      CHL1     H18C     HAL3     0.900000E-01   1.00800           0
     21192 MEMB     183      CHL1     C12      CRL2    -0.180000       12.0110           0
     21193 MEMB     183      CHL1     H12A     HGA2     0.900000E-01   1.00800           0
     21194 MEMB     183      CHL1     H12B     HGA2     0.900000E-01   1.00800           0
     21195 MEMB     183      CHL1     C11      CRL2    -0.180000       12.0110           0
     21196 MEMB     183      CHL1     H11A     HGA2     0.900000E-01   1.00800           0
     21197 MEMB     183      CHL1     H11B     HGA2     0.900000E-01   1.00800           0
     21198 MEMB     183      CHL1     C9       CRL1    -0.900000E-01   12.0110           0
     21199 MEMB     183      CHL1     H9       HGA1     0.900000E-01   1.00800           0
     21200 MEMB     183      CHL1     C10      CRL1      0.00000       12.0110           0
     21201 MEMB     183      CHL1     C19      CTL3    -0.270000       12.0110           0
     21202 MEMB     183      CHL1     H19A     HAL3     0.900000E-01   1.00800           0
     21203 MEMB     183      CHL1     H19B     HAL3     0.900000E-01   1.00800           0
     21204 MEMB     183      CHL1     H19C     HAL3     0.900000E-01   1.00800           0
     21205 MEMB     183      CHL1     C1       CRL2    -0.180000       12.0110           0
     21206 MEMB     183      CHL1     H1A      HGA2     0.900000E-01   1.00800           0
     21207 MEMB     183      CHL1     H1B      HGA2     0.900000E-01   1.00800           0
     21208 MEMB     183      CHL1     C2       CRL2    -0.180000       12.0110           0
     21209 MEMB     183      CHL1     H2A      HGA2     0.900000E-01   1.00800           0
     21210 MEMB     183      CHL1     H2B      HGA2     0.900000E-01   1.00800           0
     21211 MEMB     183      CHL1     C20      CTL1    -0.900000E-01   12.0110           0
     21212 MEMB     183      CHL1     H20      HAL1     0.900000E-01   1.00800           0
     21213 MEMB     183      CHL1     C21      CTL3    -0.270000       12.0110           0
     21214 MEMB     183      CHL1     H21A     HAL3     0.900000E-01   1.00800           0
     21215 MEMB     183      CHL1     H21B     HAL3     0.900000E-01   1.00800           0
     21216 MEMB     183      CHL1     H21C     HAL3     0.900000E-01   1.00800           0
     21217 MEMB     183      CHL1     C22      CTL2    -0.180000       12.0110           0
     21218 MEMB     183      CHL1     H22A     HAL2     0.900000E-01   1.00800           0
     21219 MEMB     183      CHL1     H22B     HAL2     0.900000E-01   1.00800           0
     21220 MEMB     183      CHL1     C23      CTL2    -0.180000       12.0110           0
     21221 MEMB     183      CHL1     H23A     HAL2     0.900000E-01   1.00800           0
     21222 MEMB     183      CHL1     H23B     HAL2     0.900000E-01   1.00800           0
     21223 MEMB     183      CHL1     C24      CTL2    -0.180000       12.0110           0
     21224 MEMB     183      CHL1     H24A     HAL2     0.900000E-01   1.00800           0
     21225 MEMB     183      CHL1     H24B     HAL2     0.900000E-01   1.00800           0
     21226 MEMB     183      CHL1     C25      CTL1    -0.900000E-01   12.0110           0
     21227 MEMB     183      CHL1     H25      HAL1     0.900000E-01   1.00800           0
     21228 MEMB     183      CHL1     C26      CTL3    -0.270000       12.0110           0
     21229 MEMB     183      CHL1     H26A     HAL3     0.900000E-01   1.00800           0
     21230 MEMB     183      CHL1     H26B     HAL3     0.900000E-01   1.00800           0
     21231 MEMB     183      CHL1     H26C     HAL3     0.900000E-01   1.00800           0
     21232 MEMB     183      CHL1     C27      CTL3    -0.270000       12.0110           0
     21233 MEMB     183      CHL1     H27A     HAL3     0.900000E-01   1.00800           0
     21234 MEMB     183      CHL1     H27B     HAL3     0.900000E-01   1.00800           0
     21235 MEMB     183      CHL1     H27C     HAL3     0.900000E-01   1.00800           0
     21236 MEMB     184      OSM      N        NTL     -0.600000       14.0070           0
     21237 MEMB     184      OSM      C15      CTL5    -0.350000       12.0110           0
     21238 MEMB     184      OSM      H15A     HL       0.250000       1.00800           0
     21239 MEMB     184      OSM      H15B     HL       0.250000       1.00800           0
     21240 MEMB     184      OSM      H15C     HL       0.250000       1.00800           0
     21241 MEMB     184      OSM      C14      CTL5    -0.350000       12.0110           0
     21242 MEMB     184      OSM      H14A     HL       0.250000       1.00800           0
     21243 MEMB     184      OSM      H14B     HL       0.250000       1.00800           0
     21244 MEMB     184      OSM      H14C     HL       0.250000       1.00800           0
     21245 MEMB     184      OSM      C13      CTL5    -0.350000       12.0110           0
     21246 MEMB     184      OSM      H13A     HL       0.250000       1.00800           0
     21247 MEMB     184      OSM      H13B     HL       0.250000       1.00800           0
     21248 MEMB     184      OSM      H13C     HL       0.250000       1.00800           0
     21249 MEMB     184      OSM      C12      CTL2    -0.100000       12.0110           0
     21250 MEMB     184      OSM      H12A     HL       0.250000       1.00800           0
     21251 MEMB     184      OSM      H12B     HL       0.250000       1.00800           0
     21252 MEMB     184      OSM      C11      CTL2    -0.800000E-01   12.0110           0
     21253 MEMB     184      OSM      H11A     HAL2     0.900000E-01   1.00800           0
     21254 MEMB     184      OSM      H11B     HAL2     0.900000E-01   1.00800           0
     21255 MEMB     184      OSM      P        PL        1.50000       30.9740           0
     21256 MEMB     184      OSM      O13      O2L     -0.780000       15.9994           0
     21257 MEMB     184      OSM      O14      O2L     -0.780000       15.9994           0
     21258 MEMB     184      OSM      O11      OSLP    -0.570000       15.9994           0
     21259 MEMB     184      OSM      O12      OSLP    -0.570000       15.9994           0
     21260 MEMB     184      OSM      C1S      CTL2    -0.800000E-01   12.0110           0
     21261 MEMB     184      OSM      H1S      HAL2     0.900000E-01   1.00800           0
     21262 MEMB     184      OSM      H1T      HAL2     0.900000E-01   1.00800           0
     21263 MEMB     184      OSM      NF       NHL     -0.700000       14.0070           0
     21264 MEMB     184      OSM      HNF      H        0.350000       1.00800           0
     21265 MEMB     184      OSM      C2S      CTL1     0.300000       12.0110           0
     21266 MEMB     184      OSM      H2S      HAL1     0.500000E-01   1.00800           0
     21267 MEMB     184      OSM      C3S      CTO1     0.500000       12.0110           0
     21268 MEMB     184      OSM      H3S      HAL1    -0.110000       1.00800           0
     21269 MEMB     184      OSM      O3       OHL     -0.690000       15.9994           0
     21270 MEMB     184      OSM      HO3      HOL      0.300000       1.00800           0
     21271 MEMB     184      OSM      C4S      CEL3    -0.150000       12.0110           0
     21272 MEMB     184      OSM      H4S      HEL1     0.150000       1.00800           0
     21273 MEMB     184      OSM      C5S      CEL3    -0.150000       12.0110           0
     21274 MEMB     184      OSM      H5S      HEL1     0.150000       1.00800           0
     21275 MEMB     184      OSM      C6S      CTL2    -0.180000       12.0110           0
     21276 MEMB     184      OSM      H6S      HAL2     0.900000E-01   1.00800           0
     21277 MEMB     184      OSM      H6T      HAL2     0.900000E-01   1.00800           0
     21278 MEMB     184      OSM      C7S      CTL2    -0.180000       12.0110           0
     21279 MEMB     184      OSM      H7S      HAL2     0.900000E-01   1.00800           0
     21280 MEMB     184      OSM      H7T      HAL2     0.900000E-01   1.00800           0
     21281 MEMB     184      OSM      C8S      CTL2    -0.180000       12.0110           0
     21282 MEMB     184      OSM      H8S      HAL2     0.900000E-01   1.00800           0
     21283 MEMB     184      OSM      H8T      HAL2     0.900000E-01   1.00800           0
     21284 MEMB     184      OSM      C9S      CTL2    -0.180000       12.0110           0
     21285 MEMB     184      OSM      H9S      HAL2     0.900000E-01   1.00800           0
     21286 MEMB     184      OSM      H9T      HAL2     0.900000E-01   1.00800           0
     21287 MEMB     184      OSM      C10S     CTL2    -0.180000       12.0110           0
     21288 MEMB     184      OSM      H10S     HAL2     0.900000E-01   1.00800           0
     21289 MEMB     184      OSM      H10T     HAL2     0.900000E-01   1.00800           0
     21290 MEMB     184      OSM      C11S     CTL2    -0.180000       12.0110           0
     21291 MEMB     184      OSM      H11S     HAL2     0.900000E-01   1.00800           0
     21292 MEMB     184      OSM      H11T     HAL2     0.900000E-01   1.00800           0
     21293 MEMB     184      OSM      C12S     CTL2    -0.180000       12.0110           0
     21294 MEMB     184      OSM      H12S     HAL2     0.900000E-01   1.00800           0
     21295 MEMB     184      OSM      H12T     HAL2     0.900000E-01   1.00800           0
     21296 MEMB     184      OSM      C13S     CTL2    -0.180000       12.0110           0
     21297 MEMB     184      OSM      H13S     HAL2     0.900000E-01   1.00800           0
     21298 MEMB     184      OSM      H13T     HAL2     0.900000E-01   1.00800           0
     21299 MEMB     184      OSM      C14S     CTL2    -0.180000       12.0110           0
     21300 MEMB     184      OSM      H14S     HAL2     0.900000E-01   1.00800           0
     21301 MEMB     184      OSM      H14T     HAL2     0.900000E-01   1.00800           0
     21302 MEMB     184      OSM      C15S     CTL2    -0.180000       12.0110           0
     21303 MEMB     184      OSM      H15S     HAL2     0.900000E-01   1.00800           0
     21304 MEMB     184      OSM      H15T     HAL2     0.900000E-01   1.00800           0
     21305 MEMB     184      OSM      C16S     CTL2    -0.180000       12.0110           0
     21306 MEMB     184      OSM      H16S     HAL2     0.900000E-01   1.00800           0
     21307 MEMB     184      OSM      H16T     HAL2     0.900000E-01   1.00800           0
     21308 MEMB     184      OSM      C17S     CTL2    -0.180000       12.0110           0
     21309 MEMB     184      OSM      H17S     HAL2     0.900000E-01   1.00800           0
     21310 MEMB     184      OSM      H17T     HAL2     0.900000E-01   1.00800           0
     21311 MEMB     184      OSM      C18S     CTL3    -0.270000       12.0110           0
     21312 MEMB     184      OSM      H18S     HAL3     0.900000E-01   1.00800           0
     21313 MEMB     184      OSM      H18T     HAL3     0.900000E-01   1.00800           0
     21314 MEMB     184      OSM      H18U     HAL3     0.900000E-01   1.00800           0
     21315 MEMB     184      OSM      C1F      C        0.550000       12.0110           0
     21316 MEMB     184      OSM      OF       O       -0.600000       15.9994           0
     21317 MEMB     184      OSM      C2F      CTL2    -0.700000E-01   12.0110           0
     21318 MEMB     184      OSM      H2F      HAL2     0.600000E-01   1.00800           0
     21319 MEMB     184      OSM      H2G      HAL2     0.600000E-01   1.00800           0
     21320 MEMB     184      OSM      C3F      CTL2    -0.180000       12.0110           0
     21321 MEMB     184      OSM      H3F      HAL2     0.900000E-01   1.00800           0
     21322 MEMB     184      OSM      H3G      HAL2     0.900000E-01   1.00800           0
     21323 MEMB     184      OSM      C4F      CTL2    -0.180000       12.0110           0
     21324 MEMB     184      OSM      H4F      HAL2     0.900000E-01   1.00800           0
     21325 MEMB     184      OSM      H4G      HAL2     0.900000E-01   1.00800           0
     21326 MEMB     184      OSM      C5F      CTL2    -0.180000       12.0110           0
     21327 MEMB     184      OSM      H5F      HAL2     0.900000E-01   1.00800           0
     21328 MEMB     184      OSM      H5G      HAL2     0.900000E-01   1.00800           0
     21329 MEMB     184      OSM      C6F      CTL2    -0.180000       12.0110           0
     21330 MEMB     184      OSM      H6F      HAL2     0.900000E-01   1.00800           0
     21331 MEMB     184      OSM      H6G      HAL2     0.900000E-01   1.00800           0
     21332 MEMB     184      OSM      C7F      CTL2    -0.180000       12.0110           0
     21333 MEMB     184      OSM      H7F      HAL2     0.900000E-01   1.00800           0
     21334 MEMB     184      OSM      H7G      HAL2     0.900000E-01   1.00800           0
     21335 MEMB     184      OSM      C8F      CTL2    -0.180000       12.0110           0
     21336 MEMB     184      OSM      H8F      HAL2     0.900000E-01   1.00800           0
     21337 MEMB     184      OSM      H8G      HAL2     0.900000E-01   1.00800           0
     21338 MEMB     184      OSM      C9F      CEL1    -0.150000       12.0110           0
     21339 MEMB     184      OSM      H9F      HEL1     0.150000       1.00800           0
     21340 MEMB     184      OSM      C10F     CEL1    -0.150000       12.0110           0
     21341 MEMB     184      OSM      H10F     HEL1     0.150000       1.00800           0
     21342 MEMB     184      OSM      C11F     CTL2    -0.180000       12.0110           0
     21343 MEMB     184      OSM      H11F     HAL2     0.900000E-01   1.00800           0
     21344 MEMB     184      OSM      H11G     HAL2     0.900000E-01   1.00800           0
     21345 MEMB     184      OSM      C12F     CTL2    -0.180000       12.0110           0
     21346 MEMB     184      OSM      H12F     HAL2     0.900000E-01   1.00800           0
     21347 MEMB     184      OSM      H12G     HAL2     0.900000E-01   1.00800           0
     21348 MEMB     184      OSM      C13F     CTL2    -0.180000       12.0110           0
     21349 MEMB     184      OSM      H13F     HAL2     0.900000E-01   1.00800           0
     21350 MEMB     184      OSM      H13G     HAL2     0.900000E-01   1.00800           0
     21351 MEMB     184      OSM      C14F     CTL2    -0.180000       12.0110           0
     21352 MEMB     184      OSM      H14F     HAL2     0.900000E-01   1.00800           0
     21353 MEMB     184      OSM      H14G     HAL2     0.900000E-01   1.00800           0
     21354 MEMB     184      OSM      C15F     CTL2    -0.180000       12.0110           0
     21355 MEMB     184      OSM      H15F     HAL2     0.900000E-01   1.00800           0
     21356 MEMB     184      OSM      H15G     HAL2     0.900000E-01   1.00800           0
     21357 MEMB     184      OSM      C16F     CTL2    -0.180000       12.0110           0
     21358 MEMB     184      OSM      H16F     HAL2     0.900000E-01   1.00800           0
     21359 MEMB     184      OSM      H16G     HAL2     0.900000E-01   1.00800           0
     21360 MEMB     184      OSM      C17F     CTL2    -0.180000       12.0110           0
     21361 MEMB     184      OSM      H17F     HAL2     0.900000E-01   1.00800           0
     21362 MEMB     184      OSM      H17G     HAL2     0.900000E-01   1.00800           0
     21363 MEMB     184      OSM      C18F     CTL3    -0.270000       12.0110           0
     21364 MEMB     184      OSM      H18F     HAL3     0.900000E-01   1.00800           0
     21365 MEMB     184      OSM      H18G     HAL3     0.900000E-01   1.00800           0
     21366 MEMB     184      OSM      H18H     HAL3     0.900000E-01   1.00800           0
     21367 MEMB     185      SAPE     N        NH3L    -0.300000       14.0070           0
     21368 MEMB     185      SAPE     HN1      HCL      0.330000       1.00800           0
     21369 MEMB     185      SAPE     HN2      HCL      0.330000       1.00800           0
     21370 MEMB     185      SAPE     HN3      HCL      0.330000       1.00800           0
     21371 MEMB     185      SAPE     C12      CTL2     0.130000       12.0110           0
     21372 MEMB     185      SAPE     H12A     HAL2     0.900000E-01   1.00800           0
     21373 MEMB     185      SAPE     H12B     HAL2     0.900000E-01   1.00800           0
     21374 MEMB     185      SAPE     C11      CTL2    -0.800000E-01   12.0110           0
     21375 MEMB     185      SAPE     H11A     HAL2     0.900000E-01   1.00800           0
     21376 MEMB     185      SAPE     H11B     HAL2     0.900000E-01   1.00800           0
     21377 MEMB     185      SAPE     P        PL        1.50000       30.9740           0
     21378 MEMB     185      SAPE     O13      O2L     -0.780000       15.9994           0
     21379 MEMB     185      SAPE     O14      O2L     -0.780000       15.9994           0
     21380 MEMB     185      SAPE     O12      OSLP    -0.570000       15.9994           0
     21381 MEMB     185      SAPE     O11      OSLP    -0.570000       15.9994           0
     21382 MEMB     185      SAPE     C1       CTL2    -0.800000E-01   12.0110           0
     21383 MEMB     185      SAPE     HA       HAL2     0.900000E-01   1.00800           0
     21384 MEMB     185      SAPE     HB       HAL2     0.900000E-01   1.00800           0
     21385 MEMB     185      SAPE     C2       CTL1     0.170000       12.0110           0
     21386 MEMB     185      SAPE     HS       HAL1     0.900000E-01   1.00800           0
     21387 MEMB     185      SAPE     O21      OSL     -0.490000       15.9994           0
     21388 MEMB     185      SAPE     C21      CL       0.900000       12.0110           0
     21389 MEMB     185      SAPE     O22      OBL     -0.630000       15.9994           0
     21390 MEMB     185      SAPE     C22      CTL2    -0.220000       12.0110           0
     21391 MEMB     185      SAPE     H2R      HAL2     0.900000E-01   1.00800           0
     21392 MEMB     185      SAPE     H2S      HAL2     0.900000E-01   1.00800           0
     21393 MEMB     185      SAPE     C3       CTL2     0.800000E-01   12.0110           0
     21394 MEMB     185      SAPE     HX       HAL2     0.900000E-01   1.00800           0
     21395 MEMB     185      SAPE     HY       HAL2     0.900000E-01   1.00800           0
     21396 MEMB     185      SAPE     O31      OSL     -0.490000       15.9994           0
     21397 MEMB     185      SAPE     C31      CL       0.900000       12.0110           0
     21398 MEMB     185      SAPE     O32      OBL     -0.630000       15.9994           0
     21399 MEMB     185      SAPE     C32      CTL2    -0.220000       12.0110           0
     21400 MEMB     185      SAPE     H2X      HAL2     0.900000E-01   1.00800           0
     21401 MEMB     185      SAPE     H2Y      HAL2     0.900000E-01   1.00800           0
     21402 MEMB     185      SAPE     C23      CTL2    -0.180000       12.0110           0
     21403 MEMB     185      SAPE     H3R      HAL2     0.900000E-01   1.00800           0
     21404 MEMB     185      SAPE     H3S      HAL2     0.900000E-01   1.00800           0
     21405 MEMB     185      SAPE     C24      CTL2    -0.180000       12.0110           0
     21406 MEMB     185      SAPE     H4R      HAL2     0.900000E-01   1.00800           0
     21407 MEMB     185      SAPE     H4S      HAL2     0.900000E-01   1.00800           0
     21408 MEMB     185      SAPE     C25      CEL1    -0.150000       12.0110           0
     21409 MEMB     185      SAPE     H5R      HEL1     0.150000       1.00800           0
     21410 MEMB     185      SAPE     C26      CEL1    -0.150000       12.0110           0
     21411 MEMB     185      SAPE     H6R      HEL1     0.150000       1.00800           0
     21412 MEMB     185      SAPE     C27      CTL2    -0.180000       12.0110           0
     21413 MEMB     185      SAPE     H7R      HAL2     0.900000E-01   1.00800           0
     21414 MEMB     185      SAPE     H7S      HAL2     0.900000E-01   1.00800           0
     21415 MEMB     185      SAPE     C28      CEL1    -0.150000       12.0110           0
     21416 MEMB     185      SAPE     H8R      HEL1     0.150000       1.00800           0
     21417 MEMB     185      SAPE     C29      CEL1    -0.150000       12.0110           0
     21418 MEMB     185      SAPE     H9R      HEL1     0.150000       1.00800           0
     21419 MEMB     185      SAPE     C210     CTL2    -0.180000       12.0110           0
     21420 MEMB     185      SAPE     H10R     HAL2     0.900000E-01   1.00800           0
     21421 MEMB     185      SAPE     H10S     HAL2     0.900000E-01   1.00800           0
     21422 MEMB     185      SAPE     C211     CEL1    -0.150000       12.0110           0
     21423 MEMB     185      SAPE     H11R     HEL1     0.150000       1.00800           0
     21424 MEMB     185      SAPE     C212     CEL1    -0.150000       12.0110           0
     21425 MEMB     185      SAPE     H12R     HEL1     0.150000       1.00800           0
     21426 MEMB     185      SAPE     C213     CTL2    -0.180000       12.0110           0
     21427 MEMB     185      SAPE     H13R     HAL2     0.900000E-01   1.00800           0
     21428 MEMB     185      SAPE     H13S     HAL2     0.900000E-01   1.00800           0
     21429 MEMB     185      SAPE     C214     CEL1    -0.150000       12.0110           0
     21430 MEMB     185      SAPE     H14R     HEL1     0.150000       1.00800           0
     21431 MEMB     185      SAPE     C215     CEL1    -0.150000       12.0110           0
     21432 MEMB     185      SAPE     H15R     HEL1     0.150000       1.00800           0
     21433 MEMB     185      SAPE     C216     CTL2    -0.180000       12.0110           0
     21434 MEMB     185      SAPE     H16R     HAL2     0.900000E-01   1.00800           0
     21435 MEMB     185      SAPE     H16S     HAL2     0.900000E-01   1.00800           0
     21436 MEMB     185      SAPE     C217     CTL2    -0.180000       12.0110           0
     21437 MEMB     185      SAPE     H17R     HAL2     0.900000E-01   1.00800           0
     21438 MEMB     185      SAPE     H17S     HAL2     0.900000E-01   1.00800           0
     21439 MEMB     185      SAPE     C218     CTL2    -0.180000       12.0110           0
     21440 MEMB     185      SAPE     H18R     HAL2     0.900000E-01   1.00800           0
     21441 MEMB     185      SAPE     H18S     HAL2     0.900000E-01   1.00800           0
     21442 MEMB     185      SAPE     C219     CTL2    -0.180000       12.0110           0
     21443 MEMB     185      SAPE     H19R     HAL2     0.900000E-01   1.00800           0
     21444 MEMB     185      SAPE     H19S     HAL2     0.900000E-01   1.00800           0
     21445 MEMB     185      SAPE     C220     CTL3    -0.270000       12.0110           0
     21446 MEMB     185      SAPE     H20R     HAL3     0.900000E-01   1.00800           0
     21447 MEMB     185      SAPE     H20S     HAL3     0.900000E-01   1.00800           0
     21448 MEMB     185      SAPE     H20T     HAL3     0.900000E-01   1.00800           0
     21449 MEMB     185      SAPE     C33      CTL2    -0.180000       12.0110           0
     21450 MEMB     185      SAPE     H3X      HAL2     0.900000E-01   1.00800           0
     21451 MEMB     185      SAPE     H3Y      HAL2     0.900000E-01   1.00800           0
     21452 MEMB     185      SAPE     C34      CTL2    -0.180000       12.0110           0
     21453 MEMB     185      SAPE     H4X      HAL2     0.900000E-01   1.00800           0
     21454 MEMB     185      SAPE     H4Y      HAL2     0.900000E-01   1.00800           0
     21455 MEMB     185      SAPE     C35      CTL2    -0.180000       12.0110           0
     21456 MEMB     185      SAPE     H5X      HAL2     0.900000E-01   1.00800           0
     21457 MEMB     185      SAPE     H5Y      HAL2     0.900000E-01   1.00800           0
     21458 MEMB     185      SAPE     C36      CTL2    -0.180000       12.0110           0
     21459 MEMB     185      SAPE     H6X      HAL2     0.900000E-01   1.00800           0
     21460 MEMB     185      SAPE     H6Y      HAL2     0.900000E-01   1.00800           0
     21461 MEMB     185      SAPE     C37      CTL2    -0.180000       12.0110           0
     21462 MEMB     185      SAPE     H7X      HAL2     0.900000E-01   1.00800           0
     21463 MEMB     185      SAPE     H7Y      HAL2     0.900000E-01   1.00800           0
     21464 MEMB     185      SAPE     C38      CTL2    -0.180000       12.0110           0
     21465 MEMB     185      SAPE     H8X      HAL2     0.900000E-01   1.00800           0
     21466 MEMB     185      SAPE     H8Y      HAL2     0.900000E-01   1.00800           0
     21467 MEMB     185      SAPE     C39      CTL2    -0.180000       12.0110           0
     21468 MEMB     185      SAPE     H9X      HAL2     0.900000E-01   1.00800           0
     21469 MEMB     185      SAPE     H9Y      HAL2     0.900000E-01   1.00800           0
     21470 MEMB     185      SAPE     C310     CTL2    -0.180000       12.0110           0
     21471 MEMB     185      SAPE     H10X     HAL2     0.900000E-01   1.00800           0
     21472 MEMB     185      SAPE     H10Y     HAL2     0.900000E-01   1.00800           0
     21473 MEMB     185      SAPE     C311     CTL2    -0.180000       12.0110           0
     21474 MEMB     185      SAPE     H11X     HAL2     0.900000E-01   1.00800           0
     21475 MEMB     185      SAPE     H11Y     HAL2     0.900000E-01   1.00800           0
     21476 MEMB     185      SAPE     C312     CTL2    -0.180000       12.0110           0
     21477 MEMB     185      SAPE     H12X     HAL2     0.900000E-01   1.00800           0
     21478 MEMB     185      SAPE     H12Y     HAL2     0.900000E-01   1.00800           0
     21479 MEMB     185      SAPE     C313     CTL2    -0.180000       12.0110           0
     21480 MEMB     185      SAPE     H13X     HAL2     0.900000E-01   1.00800           0
     21481 MEMB     185      SAPE     H13Y     HAL2     0.900000E-01   1.00800           0
     21482 MEMB     185      SAPE     C314     CTL2    -0.180000       12.0110           0
     21483 MEMB     185      SAPE     H14X     HAL2     0.900000E-01   1.00800           0
     21484 MEMB     185      SAPE     H14Y     HAL2     0.900000E-01   1.00800           0
     21485 MEMB     185      SAPE     C315     CTL2    -0.180000       12.0110           0
     21486 MEMB     185      SAPE     H15X     HAL2     0.900000E-01   1.00800           0
     21487 MEMB     185      SAPE     H15Y     HAL2     0.900000E-01   1.00800           0
     21488 MEMB     185      SAPE     C316     CTL2    -0.180000       12.0110           0
     21489 MEMB     185      SAPE     H16X     HAL2     0.900000E-01   1.00800           0
     21490 MEMB     185      SAPE     H16Y     HAL2     0.900000E-01   1.00800           0
     21491 MEMB     185      SAPE     C317     CTL2    -0.180000       12.0110           0
     21492 MEMB     185      SAPE     H17X     HAL2     0.900000E-01   1.00800           0
     21493 MEMB     185      SAPE     H17Y     HAL2     0.900000E-01   1.00800           0
     21494 MEMB     185      SAPE     C318     CTL3    -0.270000       12.0110           0
     21495 MEMB     185      SAPE     H18X     HAL3     0.900000E-01   1.00800           0
     21496 MEMB     185      SAPE     H18Y     HAL3     0.900000E-01   1.00800           0
     21497 MEMB     185      SAPE     H18Z     HAL3     0.900000E-01   1.00800           0
     21498 MEMB     186      OSM      N        NTL     -0.600000       14.0070           0
     21499 MEMB     186      OSM      C15      CTL5    -0.350000       12.0110           0
     21500 MEMB     186      OSM      H15A     HL       0.250000       1.00800           0
     21501 MEMB     186      OSM      H15B     HL       0.250000       1.00800           0
     21502 MEMB     186      OSM      H15C     HL       0.250000       1.00800           0
     21503 MEMB     186      OSM      C14      CTL5    -0.350000       12.0110           0
     21504 MEMB     186      OSM      H14A     HL       0.250000       1.00800           0
     21505 MEMB     186      OSM      H14B     HL       0.250000       1.00800           0
     21506 MEMB     186      OSM      H14C     HL       0.250000       1.00800           0
     21507 MEMB     186      OSM      C13      CTL5    -0.350000       12.0110           0
     21508 MEMB     186      OSM      H13A     HL       0.250000       1.00800           0
     21509 MEMB     186      OSM      H13B     HL       0.250000       1.00800           0
     21510 MEMB     186      OSM      H13C     HL       0.250000       1.00800           0
     21511 MEMB     186      OSM      C12      CTL2    -0.100000       12.0110           0
     21512 MEMB     186      OSM      H12A     HL       0.250000       1.00800           0
     21513 MEMB     186      OSM      H12B     HL       0.250000       1.00800           0
     21514 MEMB     186      OSM      C11      CTL2    -0.800000E-01   12.0110           0
     21515 MEMB     186      OSM      H11A     HAL2     0.900000E-01   1.00800           0
     21516 MEMB     186      OSM      H11B     HAL2     0.900000E-01   1.00800           0
     21517 MEMB     186      OSM      P        PL        1.50000       30.9740           0
     21518 MEMB     186      OSM      O13      O2L     -0.780000       15.9994           0
     21519 MEMB     186      OSM      O14      O2L     -0.780000       15.9994           0
     21520 MEMB     186      OSM      O11      OSLP    -0.570000       15.9994           0
     21521 MEMB     186      OSM      O12      OSLP    -0.570000       15.9994           0
     21522 MEMB     186      OSM      C1S      CTL2    -0.800000E-01   12.0110           0
     21523 MEMB     186      OSM      H1S      HAL2     0.900000E-01   1.00800           0
     21524 MEMB     186      OSM      H1T      HAL2     0.900000E-01   1.00800           0
     21525 MEMB     186      OSM      NF       NHL     -0.700000       14.0070           0
     21526 MEMB     186      OSM      HNF      H        0.350000       1.00800           0
     21527 MEMB     186      OSM      C2S      CTL1     0.300000       12.0110           0
     21528 MEMB     186      OSM      H2S      HAL1     0.500000E-01   1.00800           0
     21529 MEMB     186      OSM      C3S      CTO1     0.500000       12.0110           0
     21530 MEMB     186      OSM      H3S      HAL1    -0.110000       1.00800           0
     21531 MEMB     186      OSM      O3       OHL     -0.690000       15.9994           0
     21532 MEMB     186      OSM      HO3      HOL      0.300000       1.00800           0
     21533 MEMB     186      OSM      C4S      CEL3    -0.150000       12.0110           0
     21534 MEMB     186      OSM      H4S      HEL1     0.150000       1.00800           0
     21535 MEMB     186      OSM      C5S      CEL3    -0.150000       12.0110           0
     21536 MEMB     186      OSM      H5S      HEL1     0.150000       1.00800           0
     21537 MEMB     186      OSM      C6S      CTL2    -0.180000       12.0110           0
     21538 MEMB     186      OSM      H6S      HAL2     0.900000E-01   1.00800           0
     21539 MEMB     186      OSM      H6T      HAL2     0.900000E-01   1.00800           0
     21540 MEMB     186      OSM      C7S      CTL2    -0.180000       12.0110           0
     21541 MEMB     186      OSM      H7S      HAL2     0.900000E-01   1.00800           0
     21542 MEMB     186      OSM      H7T      HAL2     0.900000E-01   1.00800           0
     21543 MEMB     186      OSM      C8S      CTL2    -0.180000       12.0110           0
     21544 MEMB     186      OSM      H8S      HAL2     0.900000E-01   1.00800           0
     21545 MEMB     186      OSM      H8T      HAL2     0.900000E-01   1.00800           0
     21546 MEMB     186      OSM      C9S      CTL2    -0.180000       12.0110           0
     21547 MEMB     186      OSM      H9S      HAL2     0.900000E-01   1.00800           0
     21548 MEMB     186      OSM      H9T      HAL2     0.900000E-01   1.00800           0
     21549 MEMB     186      OSM      C10S     CTL2    -0.180000       12.0110           0
     21550 MEMB     186      OSM      H10S     HAL2     0.900000E-01   1.00800           0
     21551 MEMB     186      OSM      H10T     HAL2     0.900000E-01   1.00800           0
     21552 MEMB     186      OSM      C11S     CTL2    -0.180000       12.0110           0
     21553 MEMB     186      OSM      H11S     HAL2     0.900000E-01   1.00800           0
     21554 MEMB     186      OSM      H11T     HAL2     0.900000E-01   1.00800           0
     21555 MEMB     186      OSM      C12S     CTL2    -0.180000       12.0110           0
     21556 MEMB     186      OSM      H12S     HAL2     0.900000E-01   1.00800           0
     21557 MEMB     186      OSM      H12T     HAL2     0.900000E-01   1.00800           0
     21558 MEMB     186      OSM      C13S     CTL2    -0.180000       12.0110           0
     21559 MEMB     186      OSM      H13S     HAL2     0.900000E-01   1.00800           0
     21560 MEMB     186      OSM      H13T     HAL2     0.900000E-01   1.00800           0
     21561 MEMB     186      OSM      C14S     CTL2    -0.180000       12.0110           0
     21562 MEMB     186      OSM      H14S     HAL2     0.900000E-01   1.00800           0
     21563 MEMB     186      OSM      H14T     HAL2     0.900000E-01   1.00800           0
     21564 MEMB     186      OSM      C15S     CTL2    -0.180000       12.0110           0
     21565 MEMB     186      OSM      H15S     HAL2     0.900000E-01   1.00800           0
     21566 MEMB     186      OSM      H15T     HAL2     0.900000E-01   1.00800           0
     21567 MEMB     186      OSM      C16S     CTL2    -0.180000       12.0110           0
     21568 MEMB     186      OSM      H16S     HAL2     0.900000E-01   1.00800           0
     21569 MEMB     186      OSM      H16T     HAL2     0.900000E-01   1.00800           0
     21570 MEMB     186      OSM      C17S     CTL2    -0.180000       12.0110           0
     21571 MEMB     186      OSM      H17S     HAL2     0.900000E-01   1.00800           0
     21572 MEMB     186      OSM      H17T     HAL2     0.900000E-01   1.00800           0
     21573 MEMB     186      OSM      C18S     CTL3    -0.270000       12.0110           0
     21574 MEMB     186      OSM      H18S     HAL3     0.900000E-01   1.00800           0
     21575 MEMB     186      OSM      H18T     HAL3     0.900000E-01   1.00800           0
     21576 MEMB     186      OSM      H18U     HAL3     0.900000E-01   1.00800           0
     21577 MEMB     186      OSM      C1F      C        0.550000       12.0110           0
     21578 MEMB     186      OSM      OF       O       -0.600000       15.9994           0
     21579 MEMB     186      OSM      C2F      CTL2    -0.700000E-01   12.0110           0
     21580 MEMB     186      OSM      H2F      HAL2     0.600000E-01   1.00800           0
     21581 MEMB     186      OSM      H2G      HAL2     0.600000E-01   1.00800           0
     21582 MEMB     186      OSM      C3F      CTL2    -0.180000       12.0110           0
     21583 MEMB     186      OSM      H3F      HAL2     0.900000E-01   1.00800           0
     21584 MEMB     186      OSM      H3G      HAL2     0.900000E-01   1.00800           0
     21585 MEMB     186      OSM      C4F      CTL2    -0.180000       12.0110           0
     21586 MEMB     186      OSM      H4F      HAL2     0.900000E-01   1.00800           0
     21587 MEMB     186      OSM      H4G      HAL2     0.900000E-01   1.00800           0
     21588 MEMB     186      OSM      C5F      CTL2    -0.180000       12.0110           0
     21589 MEMB     186      OSM      H5F      HAL2     0.900000E-01   1.00800           0
     21590 MEMB     186      OSM      H5G      HAL2     0.900000E-01   1.00800           0
     21591 MEMB     186      OSM      C6F      CTL2    -0.180000       12.0110           0
     21592 MEMB     186      OSM      H6F      HAL2     0.900000E-01   1.00800           0
     21593 MEMB     186      OSM      H6G      HAL2     0.900000E-01   1.00800           0
     21594 MEMB     186      OSM      C7F      CTL2    -0.180000       12.0110           0
     21595 MEMB     186      OSM      H7F      HAL2     0.900000E-01   1.00800           0
     21596 MEMB     186      OSM      H7G      HAL2     0.900000E-01   1.00800           0
     21597 MEMB     186      OSM      C8F      CTL2    -0.180000       12.0110           0
     21598 MEMB     186      OSM      H8F      HAL2     0.900000E-01   1.00800           0
     21599 MEMB     186      OSM      H8G      HAL2     0.900000E-01   1.00800           0
     21600 MEMB     186      OSM      C9F      CEL1    -0.150000       12.0110           0
     21601 MEMB     186      OSM      H9F      HEL1     0.150000       1.00800           0
     21602 MEMB     186      OSM      C10F     CEL1    -0.150000       12.0110           0
     21603 MEMB     186      OSM      H10F     HEL1     0.150000       1.00800           0
     21604 MEMB     186      OSM      C11F     CTL2    -0.180000       12.0110           0
     21605 MEMB     186      OSM      H11F     HAL2     0.900000E-01   1.00800           0
     21606 MEMB     186      OSM      H11G     HAL2     0.900000E-01   1.00800           0
     21607 MEMB     186      OSM      C12F     CTL2    -0.180000       12.0110           0
     21608 MEMB     186      OSM      H12F     HAL2     0.900000E-01   1.00800           0
     21609 MEMB     186      OSM      H12G     HAL2     0.900000E-01   1.00800           0
     21610 MEMB     186      OSM      C13F     CTL2    -0.180000       12.0110           0
     21611 MEMB     186      OSM      H13F     HAL2     0.900000E-01   1.00800           0
     21612 MEMB     186      OSM      H13G     HAL2     0.900000E-01   1.00800           0
     21613 MEMB     186      OSM      C14F     CTL2    -0.180000       12.0110           0
     21614 MEMB     186      OSM      H14F     HAL2     0.900000E-01   1.00800           0
     21615 MEMB     186      OSM      H14G     HAL2     0.900000E-01   1.00800           0
     21616 MEMB     186      OSM      C15F     CTL2    -0.180000       12.0110           0
     21617 MEMB     186      OSM      H15F     HAL2     0.900000E-01   1.00800           0
     21618 MEMB     186      OSM      H15G     HAL2     0.900000E-01   1.00800           0
     21619 MEMB     186      OSM      C16F     CTL2    -0.180000       12.0110           0
     21620 MEMB     186      OSM      H16F     HAL2     0.900000E-01   1.00800           0
     21621 MEMB     186      OSM      H16G     HAL2     0.900000E-01   1.00800           0
     21622 MEMB     186      OSM      C17F     CTL2    -0.180000       12.0110           0
     21623 MEMB     186      OSM      H17F     HAL2     0.900000E-01   1.00800           0
     21624 MEMB     186      OSM      H17G     HAL2     0.900000E-01   1.00800           0
     21625 MEMB     186      OSM      C18F     CTL3    -0.270000       12.0110           0
     21626 MEMB     186      OSM      H18F     HAL3     0.900000E-01   1.00800           0
     21627 MEMB     186      OSM      H18G     HAL3     0.900000E-01   1.00800           0
     21628 MEMB     186      OSM      H18H     HAL3     0.900000E-01   1.00800           0
     21629 MEMB     187      CHL1     C3       CRL1     0.140000       12.0110           0
     21630 MEMB     187      CHL1     H3       HGA1     0.900000E-01   1.00800           0
     21631 MEMB     187      CHL1     O3       OHL     -0.660000       15.9994           0
     21632 MEMB     187      CHL1     H3'      HOL      0.430000       1.00800           0
     21633 MEMB     187      CHL1     C4       CRL2    -0.180000       12.0110           0
     21634 MEMB     187      CHL1     H4A      HGA2     0.900000E-01   1.00800           0
     21635 MEMB     187      CHL1     H4B      HGA2     0.900000E-01   1.00800           0
     21636 MEMB     187      CHL1     C5       CEL1      0.00000       12.0110           0
     21637 MEMB     187      CHL1     C6       CEL1    -0.150000       12.0110           0
     21638 MEMB     187      CHL1     H6       HEL1     0.150000       1.00800           0
     21639 MEMB     187      CHL1     C7       CRL2    -0.180000       12.0110           0
     21640 MEMB     187      CHL1     H7A      HGA2     0.900000E-01   1.00800           0
     21641 MEMB     187      CHL1     H7B      HGA2     0.900000E-01   1.00800           0
     21642 MEMB     187      CHL1     C8       CRL1    -0.900000E-01   12.0110           0
     21643 MEMB     187      CHL1     H8       HGA1     0.900000E-01   1.00800           0
     21644 MEMB     187      CHL1     C14      CRL1    -0.900000E-01   12.0110           0
     21645 MEMB     187      CHL1     H14      HGA1     0.900000E-01   1.00800           0
     21646 MEMB     187      CHL1     C15      CRL2    -0.180000       12.0110           0
     21647 MEMB     187      CHL1     H15A     HGA2     0.900000E-01   1.00800           0
     21648 MEMB     187      CHL1     H15B     HGA2     0.900000E-01   1.00800           0
     21649 MEMB     187      CHL1     C16      CRL2    -0.180000       12.0110           0
     21650 MEMB     187      CHL1     H16A     HGA2     0.900000E-01   1.00800           0
     21651 MEMB     187      CHL1     H16B     HGA2     0.900000E-01   1.00800           0
     21652 MEMB     187      CHL1     C17      CRL1    -0.900000E-01   12.0110           0
     21653 MEMB     187      CHL1     H17      HGA1     0.900000E-01   1.00800           0
     21654 MEMB     187      CHL1     C13      CRL1      0.00000       12.0110           0
     21655 MEMB     187      CHL1     C18      CTL3    -0.270000       12.0110           0
     21656 MEMB     187      CHL1     H18A     HAL3     0.900000E-01   1.00800           0
     21657 MEMB     187      CHL1     H18B     HAL3     0.900000E-01   1.00800           0
     21658 MEMB     187      CHL1     H18C     HAL3     0.900000E-01   1.00800           0
     21659 MEMB     187      CHL1     C12      CRL2    -0.180000       12.0110           0
     21660 MEMB     187      CHL1     H12A     HGA2     0.900000E-01   1.00800           0
     21661 MEMB     187      CHL1     H12B     HGA2     0.900000E-01   1.00800           0
     21662 MEMB     187      CHL1     C11      CRL2    -0.180000       12.0110           0
     21663 MEMB     187      CHL1     H11A     HGA2     0.900000E-01   1.00800           0
     21664 MEMB     187      CHL1     H11B     HGA2     0.900000E-01   1.00800           0
     21665 MEMB     187      CHL1     C9       CRL1    -0.900000E-01   12.0110           0
     21666 MEMB     187      CHL1     H9       HGA1     0.900000E-01   1.00800           0
     21667 MEMB     187      CHL1     C10      CRL1      0.00000       12.0110           0
     21668 MEMB     187      CHL1     C19      CTL3    -0.270000       12.0110           0
     21669 MEMB     187      CHL1     H19A     HAL3     0.900000E-01   1.00800           0
     21670 MEMB     187      CHL1     H19B     HAL3     0.900000E-01   1.00800           0
     21671 MEMB     187      CHL1     H19C     HAL3     0.900000E-01   1.00800           0
     21672 MEMB     187      CHL1     C1       CRL2    -0.180000       12.0110           0
     21673 MEMB     187      CHL1     H1A      HGA2     0.900000E-01   1.00800           0
     21674 MEMB     187      CHL1     H1B      HGA2     0.900000E-01   1.00800           0
     21675 MEMB     187      CHL1     C2       CRL2    -0.180000       12.0110           0
     21676 MEMB     187      CHL1     H2A      HGA2     0.900000E-01   1.00800           0
     21677 MEMB     187      CHL1     H2B      HGA2     0.900000E-01   1.00800           0
     21678 MEMB     187      CHL1     C20      CTL1    -0.900000E-01   12.0110           0
     21679 MEMB     187      CHL1     H20      HAL1     0.900000E-01   1.00800           0
     21680 MEMB     187      CHL1     C21      CTL3    -0.270000       12.0110           0
     21681 MEMB     187      CHL1     H21A     HAL3     0.900000E-01   1.00800           0
     21682 MEMB     187      CHL1     H21B     HAL3     0.900000E-01   1.00800           0
     21683 MEMB     187      CHL1     H21C     HAL3     0.900000E-01   1.00800           0
     21684 MEMB     187      CHL1     C22      CTL2    -0.180000       12.0110           0
     21685 MEMB     187      CHL1     H22A     HAL2     0.900000E-01   1.00800           0
     21686 MEMB     187      CHL1     H22B     HAL2     0.900000E-01   1.00800           0
     21687 MEMB     187      CHL1     C23      CTL2    -0.180000       12.0110           0
     21688 MEMB     187      CHL1     H23A     HAL2     0.900000E-01   1.00800           0
     21689 MEMB     187      CHL1     H23B     HAL2     0.900000E-01   1.00800           0
     21690 MEMB     187      CHL1     C24      CTL2    -0.180000       12.0110           0
     21691 MEMB     187      CHL1     H24A     HAL2     0.900000E-01   1.00800           0
     21692 MEMB     187      CHL1     H24B     HAL2     0.900000E-01   1.00800           0
     21693 MEMB     187      CHL1     C25      CTL1    -0.900000E-01   12.0110           0
     21694 MEMB     187      CHL1     H25      HAL1     0.900000E-01   1.00800           0
     21695 MEMB     187      CHL1     C26      CTL3    -0.270000       12.0110           0
     21696 MEMB     187      CHL1     H26A     HAL3     0.900000E-01   1.00800           0
     21697 MEMB     187      CHL1     H26B     HAL3     0.900000E-01   1.00800           0
     21698 MEMB     187      CHL1     H26C     HAL3     0.900000E-01   1.00800           0
     21699 MEMB     187      CHL1     C27      CTL3    -0.270000       12.0110           0
     21700 MEMB     187      CHL1     H27A     HAL3     0.900000E-01   1.00800           0
     21701 MEMB     187      CHL1     H27B     HAL3     0.900000E-01   1.00800           0
     21702 MEMB     187      CHL1     H27C     HAL3     0.900000E-01   1.00800           0
     21703 MEMB     188      OSM      N        NTL     -0.600000       14.0070           0
     21704 MEMB     188      OSM      C15      CTL5    -0.350000       12.0110           0
     21705 MEMB     188      OSM      H15A     HL       0.250000       1.00800           0
     21706 MEMB     188      OSM      H15B     HL       0.250000       1.00800           0
     21707 MEMB     188      OSM      H15C     HL       0.250000       1.00800           0
     21708 MEMB     188      OSM      C14      CTL5    -0.350000       12.0110           0
     21709 MEMB     188      OSM      H14A     HL       0.250000       1.00800           0
     21710 MEMB     188      OSM      H14B     HL       0.250000       1.00800           0
     21711 MEMB     188      OSM      H14C     HL       0.250000       1.00800           0
     21712 MEMB     188      OSM      C13      CTL5    -0.350000       12.0110           0
     21713 MEMB     188      OSM      H13A     HL       0.250000       1.00800           0
     21714 MEMB     188      OSM      H13B     HL       0.250000       1.00800           0
     21715 MEMB     188      OSM      H13C     HL       0.250000       1.00800           0
     21716 MEMB     188      OSM      C12      CTL2    -0.100000       12.0110           0
     21717 MEMB     188      OSM      H12A     HL       0.250000       1.00800           0
     21718 MEMB     188      OSM      H12B     HL       0.250000       1.00800           0
     21719 MEMB     188      OSM      C11      CTL2    -0.800000E-01   12.0110           0
     21720 MEMB     188      OSM      H11A     HAL2     0.900000E-01   1.00800           0
     21721 MEMB     188      OSM      H11B     HAL2     0.900000E-01   1.00800           0
     21722 MEMB     188      OSM      P        PL        1.50000       30.9740           0
     21723 MEMB     188      OSM      O13      O2L     -0.780000       15.9994           0
     21724 MEMB     188      OSM      O14      O2L     -0.780000       15.9994           0
     21725 MEMB     188      OSM      O11      OSLP    -0.570000       15.9994           0
     21726 MEMB     188      OSM      O12      OSLP    -0.570000       15.9994           0
     21727 MEMB     188      OSM      C1S      CTL2    -0.800000E-01   12.0110           0
     21728 MEMB     188      OSM      H1S      HAL2     0.900000E-01   1.00800           0
     21729 MEMB     188      OSM      H1T      HAL2     0.900000E-01   1.00800           0
     21730 MEMB     188      OSM      NF       NHL     -0.700000       14.0070           0
     21731 MEMB     188      OSM      HNF      H        0.350000       1.00800           0
     21732 MEMB     188      OSM      C2S      CTL1     0.300000       12.0110           0
     21733 MEMB     188      OSM      H2S      HAL1     0.500000E-01   1.00800           0
     21734 MEMB     188      OSM      C3S      CTO1     0.500000       12.0110           0
     21735 MEMB     188      OSM      H3S      HAL1    -0.110000       1.00800           0
     21736 MEMB     188      OSM      O3       OHL     -0.690000       15.9994           0
     21737 MEMB     188      OSM      HO3      HOL      0.300000       1.00800           0
     21738 MEMB     188      OSM      C4S      CEL3    -0.150000       12.0110           0
     21739 MEMB     188      OSM      H4S      HEL1     0.150000       1.00800           0
     21740 MEMB     188      OSM      C5S      CEL3    -0.150000       12.0110           0
     21741 MEMB     188      OSM      H5S      HEL1     0.150000       1.00800           0
     21742 MEMB     188      OSM      C6S      CTL2    -0.180000       12.0110           0
     21743 MEMB     188      OSM      H6S      HAL2     0.900000E-01   1.00800           0
     21744 MEMB     188      OSM      H6T      HAL2     0.900000E-01   1.00800           0
     21745 MEMB     188      OSM      C7S      CTL2    -0.180000       12.0110           0
     21746 MEMB     188      OSM      H7S      HAL2     0.900000E-01   1.00800           0
     21747 MEMB     188      OSM      H7T      HAL2     0.900000E-01   1.00800           0
     21748 MEMB     188      OSM      C8S      CTL2    -0.180000       12.0110           0
     21749 MEMB     188      OSM      H8S      HAL2     0.900000E-01   1.00800           0
     21750 MEMB     188      OSM      H8T      HAL2     0.900000E-01   1.00800           0
     21751 MEMB     188      OSM      C9S      CTL2    -0.180000       12.0110           0
     21752 MEMB     188      OSM      H9S      HAL2     0.900000E-01   1.00800           0
     21753 MEMB     188      OSM      H9T      HAL2     0.900000E-01   1.00800           0
     21754 MEMB     188      OSM      C10S     CTL2    -0.180000       12.0110           0
     21755 MEMB     188      OSM      H10S     HAL2     0.900000E-01   1.00800           0
     21756 MEMB     188      OSM      H10T     HAL2     0.900000E-01   1.00800           0
     21757 MEMB     188      OSM      C11S     CTL2    -0.180000       12.0110           0
     21758 MEMB     188      OSM      H11S     HAL2     0.900000E-01   1.00800           0
     21759 MEMB     188      OSM      H11T     HAL2     0.900000E-01   1.00800           0
     21760 MEMB     188      OSM      C12S     CTL2    -0.180000       12.0110           0
     21761 MEMB     188      OSM      H12S     HAL2     0.900000E-01   1.00800           0
     21762 MEMB     188      OSM      H12T     HAL2     0.900000E-01   1.00800           0
     21763 MEMB     188      OSM      C13S     CTL2    -0.180000       12.0110           0
     21764 MEMB     188      OSM      H13S     HAL2     0.900000E-01   1.00800           0
     21765 MEMB     188      OSM      H13T     HAL2     0.900000E-01   1.00800           0
     21766 MEMB     188      OSM      C14S     CTL2    -0.180000       12.0110           0
     21767 MEMB     188      OSM      H14S     HAL2     0.900000E-01   1.00800           0
     21768 MEMB     188      OSM      H14T     HAL2     0.900000E-01   1.00800           0
     21769 MEMB     188      OSM      C15S     CTL2    -0.180000       12.0110           0
     21770 MEMB     188      OSM      H15S     HAL2     0.900000E-01   1.00800           0
     21771 MEMB     188      OSM      H15T     HAL2     0.900000E-01   1.00800           0
     21772 MEMB     188      OSM      C16S     CTL2    -0.180000       12.0110           0
     21773 MEMB     188      OSM      H16S     HAL2     0.900000E-01   1.00800           0
     21774 MEMB     188      OSM      H16T     HAL2     0.900000E-01   1.00800           0
     21775 MEMB     188      OSM      C17S     CTL2    -0.180000       12.0110           0
     21776 MEMB     188      OSM      H17S     HAL2     0.900000E-01   1.00800           0
     21777 MEMB     188      OSM      H17T     HAL2     0.900000E-01   1.00800           0
     21778 MEMB     188      OSM      C18S     CTL3    -0.270000       12.0110           0
     21779 MEMB     188      OSM      H18S     HAL3     0.900000E-01   1.00800           0
     21780 MEMB     188      OSM      H18T     HAL3     0.900000E-01   1.00800           0
     21781 MEMB     188      OSM      H18U     HAL3     0.900000E-01   1.00800           0
     21782 MEMB     188      OSM      C1F      C        0.550000       12.0110           0
     21783 MEMB     188      OSM      OF       O       -0.600000       15.9994           0
     21784 MEMB     188      OSM      C2F      CTL2    -0.700000E-01   12.0110           0
     21785 MEMB     188      OSM      H2F      HAL2     0.600000E-01   1.00800           0
     21786 MEMB     188      OSM      H2G      HAL2     0.600000E-01   1.00800           0
     21787 MEMB     188      OSM      C3F      CTL2    -0.180000       12.0110           0
     21788 MEMB     188      OSM      H3F      HAL2     0.900000E-01   1.00800           0
     21789 MEMB     188      OSM      H3G      HAL2     0.900000E-01   1.00800           0
     21790 MEMB     188      OSM      C4F      CTL2    -0.180000       12.0110           0
     21791 MEMB     188      OSM      H4F      HAL2     0.900000E-01   1.00800           0
     21792 MEMB     188      OSM      H4G      HAL2     0.900000E-01   1.00800           0
     21793 MEMB     188      OSM      C5F      CTL2    -0.180000       12.0110           0
     21794 MEMB     188      OSM      H5F      HAL2     0.900000E-01   1.00800           0
     21795 MEMB     188      OSM      H5G      HAL2     0.900000E-01   1.00800           0
     21796 MEMB     188      OSM      C6F      CTL2    -0.180000       12.0110           0
     21797 MEMB     188      OSM      H6F      HAL2     0.900000E-01   1.00800           0
     21798 MEMB     188      OSM      H6G      HAL2     0.900000E-01   1.00800           0
     21799 MEMB     188      OSM      C7F      CTL2    -0.180000       12.0110           0
     21800 MEMB     188      OSM      H7F      HAL2     0.900000E-01   1.00800           0
     21801 MEMB     188      OSM      H7G      HAL2     0.900000E-01   1.00800           0
     21802 MEMB     188      OSM      C8F      CTL2    -0.180000       12.0110           0
     21803 MEMB     188      OSM      H8F      HAL2     0.900000E-01   1.00800           0
     21804 MEMB     188      OSM      H8G      HAL2     0.900000E-01   1.00800           0
     21805 MEMB     188      OSM      C9F      CEL1    -0.150000       12.0110           0
     21806 MEMB     188      OSM      H9F      HEL1     0.150000       1.00800           0
     21807 MEMB     188      OSM      C10F     CEL1    -0.150000       12.0110           0
     21808 MEMB     188      OSM      H10F     HEL1     0.150000       1.00800           0
     21809 MEMB     188      OSM      C11F     CTL2    -0.180000       12.0110           0
     21810 MEMB     188      OSM      H11F     HAL2     0.900000E-01   1.00800           0
     21811 MEMB     188      OSM      H11G     HAL2     0.900000E-01   1.00800           0
     21812 MEMB     188      OSM      C12F     CTL2    -0.180000       12.0110           0
     21813 MEMB     188      OSM      H12F     HAL2     0.900000E-01   1.00800           0
     21814 MEMB     188      OSM      H12G     HAL2     0.900000E-01   1.00800           0
     21815 MEMB     188      OSM      C13F     CTL2    -0.180000       12.0110           0
     21816 MEMB     188      OSM      H13F     HAL2     0.900000E-01   1.00800           0
     21817 MEMB     188      OSM      H13G     HAL2     0.900000E-01   1.00800           0
     21818 MEMB     188      OSM      C14F     CTL2    -0.180000       12.0110           0
     21819 MEMB     188      OSM      H14F     HAL2     0.900000E-01   1.00800           0
     21820 MEMB     188      OSM      H14G     HAL2     0.900000E-01   1.00800           0
     21821 MEMB     188      OSM      C15F     CTL2    -0.180000       12.0110           0
     21822 MEMB     188      OSM      H15F     HAL2     0.900000E-01   1.00800           0
     21823 MEMB     188      OSM      H15G     HAL2     0.900000E-01   1.00800           0
     21824 MEMB     188      OSM      C16F     CTL2    -0.180000       12.0110           0
     21825 MEMB     188      OSM      H16F     HAL2     0.900000E-01   1.00800           0
     21826 MEMB     188      OSM      H16G     HAL2     0.900000E-01   1.00800           0
     21827 MEMB     188      OSM      C17F     CTL2    -0.180000       12.0110           0
     21828 MEMB     188      OSM      H17F     HAL2     0.900000E-01   1.00800           0
     21829 MEMB     188      OSM      H17G     HAL2     0.900000E-01   1.00800           0
     21830 MEMB     188      OSM      C18F     CTL3    -0.270000       12.0110           0
     21831 MEMB     188      OSM      H18F     HAL3     0.900000E-01   1.00800           0
     21832 MEMB     188      OSM      H18G     HAL3     0.900000E-01   1.00800           0
     21833 MEMB     188      OSM      H18H     HAL3     0.900000E-01   1.00800           0
     21834 MEMB     189      OSM      N        NTL     -0.600000       14.0070           0
     21835 MEMB     189      OSM      C15      CTL5    -0.350000       12.0110           0
     21836 MEMB     189      OSM      H15A     HL       0.250000       1.00800           0
     21837 MEMB     189      OSM      H15B     HL       0.250000       1.00800           0
     21838 MEMB     189      OSM      H15C     HL       0.250000       1.00800           0
     21839 MEMB     189      OSM      C14      CTL5    -0.350000       12.0110           0
     21840 MEMB     189      OSM      H14A     HL       0.250000       1.00800           0
     21841 MEMB     189      OSM      H14B     HL       0.250000       1.00800           0
     21842 MEMB     189      OSM      H14C     HL       0.250000       1.00800           0
     21843 MEMB     189      OSM      C13      CTL5    -0.350000       12.0110           0
     21844 MEMB     189      OSM      H13A     HL       0.250000       1.00800           0
     21845 MEMB     189      OSM      H13B     HL       0.250000       1.00800           0
     21846 MEMB     189      OSM      H13C     HL       0.250000       1.00800           0
     21847 MEMB     189      OSM      C12      CTL2    -0.100000       12.0110           0
     21848 MEMB     189      OSM      H12A     HL       0.250000       1.00800           0
     21849 MEMB     189      OSM      H12B     HL       0.250000       1.00800           0
     21850 MEMB     189      OSM      C11      CTL2    -0.800000E-01   12.0110           0
     21851 MEMB     189      OSM      H11A     HAL2     0.900000E-01   1.00800           0
     21852 MEMB     189      OSM      H11B     HAL2     0.900000E-01   1.00800           0
     21853 MEMB     189      OSM      P        PL        1.50000       30.9740           0
     21854 MEMB     189      OSM      O13      O2L     -0.780000       15.9994           0
     21855 MEMB     189      OSM      O14      O2L     -0.780000       15.9994           0
     21856 MEMB     189      OSM      O11      OSLP    -0.570000       15.9994           0
     21857 MEMB     189      OSM      O12      OSLP    -0.570000       15.9994           0
     21858 MEMB     189      OSM      C1S      CTL2    -0.800000E-01   12.0110           0
     21859 MEMB     189      OSM      H1S      HAL2     0.900000E-01   1.00800           0
     21860 MEMB     189      OSM      H1T      HAL2     0.900000E-01   1.00800           0
     21861 MEMB     189      OSM      NF       NHL     -0.700000       14.0070           0
     21862 MEMB     189      OSM      HNF      H        0.350000       1.00800           0
     21863 MEMB     189      OSM      C2S      CTL1     0.300000       12.0110           0
     21864 MEMB     189      OSM      H2S      HAL1     0.500000E-01   1.00800           0
     21865 MEMB     189      OSM      C3S      CTO1     0.500000       12.0110           0
     21866 MEMB     189      OSM      H3S      HAL1    -0.110000       1.00800           0
     21867 MEMB     189      OSM      O3       OHL     -0.690000       15.9994           0
     21868 MEMB     189      OSM      HO3      HOL      0.300000       1.00800           0
     21869 MEMB     189      OSM      C4S      CEL3    -0.150000       12.0110           0
     21870 MEMB     189      OSM      H4S      HEL1     0.150000       1.00800           0
     21871 MEMB     189      OSM      C5S      CEL3    -0.150000       12.0110           0
     21872 MEMB     189      OSM      H5S      HEL1     0.150000       1.00800           0
     21873 MEMB     189      OSM      C6S      CTL2    -0.180000       12.0110           0
     21874 MEMB     189      OSM      H6S      HAL2     0.900000E-01   1.00800           0
     21875 MEMB     189      OSM      H6T      HAL2     0.900000E-01   1.00800           0
     21876 MEMB     189      OSM      C7S      CTL2    -0.180000       12.0110           0
     21877 MEMB     189      OSM      H7S      HAL2     0.900000E-01   1.00800           0
     21878 MEMB     189      OSM      H7T      HAL2     0.900000E-01   1.00800           0
     21879 MEMB     189      OSM      C8S      CTL2    -0.180000       12.0110           0
     21880 MEMB     189      OSM      H8S      HAL2     0.900000E-01   1.00800           0
     21881 MEMB     189      OSM      H8T      HAL2     0.900000E-01   1.00800           0
     21882 MEMB     189      OSM      C9S      CTL2    -0.180000       12.0110           0
     21883 MEMB     189      OSM      H9S      HAL2     0.900000E-01   1.00800           0
     21884 MEMB     189      OSM      H9T      HAL2     0.900000E-01   1.00800           0
     21885 MEMB     189      OSM      C10S     CTL2    -0.180000       12.0110           0
     21886 MEMB     189      OSM      H10S     HAL2     0.900000E-01   1.00800           0
     21887 MEMB     189      OSM      H10T     HAL2     0.900000E-01   1.00800           0
     21888 MEMB     189      OSM      C11S     CTL2    -0.180000       12.0110           0
     21889 MEMB     189      OSM      H11S     HAL2     0.900000E-01   1.00800           0
     21890 MEMB     189      OSM      H11T     HAL2     0.900000E-01   1.00800           0
     21891 MEMB     189      OSM      C12S     CTL2    -0.180000       12.0110           0
     21892 MEMB     189      OSM      H12S     HAL2     0.900000E-01   1.00800           0
     21893 MEMB     189      OSM      H12T     HAL2     0.900000E-01   1.00800           0
     21894 MEMB     189      OSM      C13S     CTL2    -0.180000       12.0110           0
     21895 MEMB     189      OSM      H13S     HAL2     0.900000E-01   1.00800           0
     21896 MEMB     189      OSM      H13T     HAL2     0.900000E-01   1.00800           0
     21897 MEMB     189      OSM      C14S     CTL2    -0.180000       12.0110           0
     21898 MEMB     189      OSM      H14S     HAL2     0.900000E-01   1.00800           0
     21899 MEMB     189      OSM      H14T     HAL2     0.900000E-01   1.00800           0
     21900 MEMB     189      OSM      C15S     CTL2    -0.180000       12.0110           0
     21901 MEMB     189      OSM      H15S     HAL2     0.900000E-01   1.00800           0
     21902 MEMB     189      OSM      H15T     HAL2     0.900000E-01   1.00800           0
     21903 MEMB     189      OSM      C16S     CTL2    -0.180000       12.0110           0
     21904 MEMB     189      OSM      H16S     HAL2     0.900000E-01   1.00800           0
     21905 MEMB     189      OSM      H16T     HAL2     0.900000E-01   1.00800           0
     21906 MEMB     189      OSM      C17S     CTL2    -0.180000       12.0110           0
     21907 MEMB     189      OSM      H17S     HAL2     0.900000E-01   1.00800           0
     21908 MEMB     189      OSM      H17T     HAL2     0.900000E-01   1.00800           0
     21909 MEMB     189      OSM      C18S     CTL3    -0.270000       12.0110           0
     21910 MEMB     189      OSM      H18S     HAL3     0.900000E-01   1.00800           0
     21911 MEMB     189      OSM      H18T     HAL3     0.900000E-01   1.00800           0
     21912 MEMB     189      OSM      H18U     HAL3     0.900000E-01   1.00800           0
     21913 MEMB     189      OSM      C1F      C        0.550000       12.0110           0
     21914 MEMB     189      OSM      OF       O       -0.600000       15.9994           0
     21915 MEMB     189      OSM      C2F      CTL2    -0.700000E-01   12.0110           0
     21916 MEMB     189      OSM      H2F      HAL2     0.600000E-01   1.00800           0
     21917 MEMB     189      OSM      H2G      HAL2     0.600000E-01   1.00800           0
     21918 MEMB     189      OSM      C3F      CTL2    -0.180000       12.0110           0
     21919 MEMB     189      OSM      H3F      HAL2     0.900000E-01   1.00800           0
     21920 MEMB     189      OSM      H3G      HAL2     0.900000E-01   1.00800           0
     21921 MEMB     189      OSM      C4F      CTL2    -0.180000       12.0110           0
     21922 MEMB     189      OSM      H4F      HAL2     0.900000E-01   1.00800           0
     21923 MEMB     189      OSM      H4G      HAL2     0.900000E-01   1.00800           0
     21924 MEMB     189      OSM      C5F      CTL2    -0.180000       12.0110           0
     21925 MEMB     189      OSM      H5F      HAL2     0.900000E-01   1.00800           0
     21926 MEMB     189      OSM      H5G      HAL2     0.900000E-01   1.00800           0
     21927 MEMB     189      OSM      C6F      CTL2    -0.180000       12.0110           0
     21928 MEMB     189      OSM      H6F      HAL2     0.900000E-01   1.00800           0
     21929 MEMB     189      OSM      H6G      HAL2     0.900000E-01   1.00800           0
     21930 MEMB     189      OSM      C7F      CTL2    -0.180000       12.0110           0
     21931 MEMB     189      OSM      H7F      HAL2     0.900000E-01   1.00800           0
     21932 MEMB     189      OSM      H7G      HAL2     0.900000E-01   1.00800           0
     21933 MEMB     189      OSM      C8F      CTL2    -0.180000       12.0110           0
     21934 MEMB     189      OSM      H8F      HAL2     0.900000E-01   1.00800           0
     21935 MEMB     189      OSM      H8G      HAL2     0.900000E-01   1.00800           0
     21936 MEMB     189      OSM      C9F      CEL1    -0.150000       12.0110           0
     21937 MEMB     189      OSM      H9F      HEL1     0.150000       1.00800           0
     21938 MEMB     189      OSM      C10F     CEL1    -0.150000       12.0110           0
     21939 MEMB     189      OSM      H10F     HEL1     0.150000       1.00800           0
     21940 MEMB     189      OSM      C11F     CTL2    -0.180000       12.0110           0
     21941 MEMB     189      OSM      H11F     HAL2     0.900000E-01   1.00800           0
     21942 MEMB     189      OSM      H11G     HAL2     0.900000E-01   1.00800           0
     21943 MEMB     189      OSM      C12F     CTL2    -0.180000       12.0110           0
     21944 MEMB     189      OSM      H12F     HAL2     0.900000E-01   1.00800           0
     21945 MEMB     189      OSM      H12G     HAL2     0.900000E-01   1.00800           0
     21946 MEMB     189      OSM      C13F     CTL2    -0.180000       12.0110           0
     21947 MEMB     189      OSM      H13F     HAL2     0.900000E-01   1.00800           0
     21948 MEMB     189      OSM      H13G     HAL2     0.900000E-01   1.00800           0
     21949 MEMB     189      OSM      C14F     CTL2    -0.180000       12.0110           0
     21950 MEMB     189      OSM      H14F     HAL2     0.900000E-01   1.00800           0
     21951 MEMB     189      OSM      H14G     HAL2     0.900000E-01   1.00800           0
     21952 MEMB     189      OSM      C15F     CTL2    -0.180000       12.0110           0
     21953 MEMB     189      OSM      H15F     HAL2     0.900000E-01   1.00800           0
     21954 MEMB     189      OSM      H15G     HAL2     0.900000E-01   1.00800           0
     21955 MEMB     189      OSM      C16F     CTL2    -0.180000       12.0110           0
     21956 MEMB     189      OSM      H16F     HAL2     0.900000E-01   1.00800           0
     21957 MEMB     189      OSM      H16G     HAL2     0.900000E-01   1.00800           0
     21958 MEMB     189      OSM      C17F     CTL2    -0.180000       12.0110           0
     21959 MEMB     189      OSM      H17F     HAL2     0.900000E-01   1.00800           0
     21960 MEMB     189      OSM      H17G     HAL2     0.900000E-01   1.00800           0
     21961 MEMB     189      OSM      C18F     CTL3    -0.270000       12.0110           0
     21962 MEMB     189      OSM      H18F     HAL3     0.900000E-01   1.00800           0
     21963 MEMB     189      OSM      H18G     HAL3     0.900000E-01   1.00800           0
     21964 MEMB     189      OSM      H18H     HAL3     0.900000E-01   1.00800           0
     21965 MEMB     190      CHL1     C3       CRL1     0.140000       12.0110           0
     21966 MEMB     190      CHL1     H3       HGA1     0.900000E-01   1.00800           0
     21967 MEMB     190      CHL1     O3       OHL     -0.660000       15.9994           0
     21968 MEMB     190      CHL1     H3'      HOL      0.430000       1.00800           0
     21969 MEMB     190      CHL1     C4       CRL2    -0.180000       12.0110           0
     21970 MEMB     190      CHL1     H4A      HGA2     0.900000E-01   1.00800           0
     21971 MEMB     190      CHL1     H4B      HGA2     0.900000E-01   1.00800           0
     21972 MEMB     190      CHL1     C5       CEL1      0.00000       12.0110           0
     21973 MEMB     190      CHL1     C6       CEL1    -0.150000       12.0110           0
     21974 MEMB     190      CHL1     H6       HEL1     0.150000       1.00800           0
     21975 MEMB     190      CHL1     C7       CRL2    -0.180000       12.0110           0
     21976 MEMB     190      CHL1     H7A      HGA2     0.900000E-01   1.00800           0
     21977 MEMB     190      CHL1     H7B      HGA2     0.900000E-01   1.00800           0
     21978 MEMB     190      CHL1     C8       CRL1    -0.900000E-01   12.0110           0
     21979 MEMB     190      CHL1     H8       HGA1     0.900000E-01   1.00800           0
     21980 MEMB     190      CHL1     C14      CRL1    -0.900000E-01   12.0110           0
     21981 MEMB     190      CHL1     H14      HGA1     0.900000E-01   1.00800           0
     21982 MEMB     190      CHL1     C15      CRL2    -0.180000       12.0110           0
     21983 MEMB     190      CHL1     H15A     HGA2     0.900000E-01   1.00800           0
     21984 MEMB     190      CHL1     H15B     HGA2     0.900000E-01   1.00800           0
     21985 MEMB     190      CHL1     C16      CRL2    -0.180000       12.0110           0
     21986 MEMB     190      CHL1     H16A     HGA2     0.900000E-01   1.00800           0
     21987 MEMB     190      CHL1     H16B     HGA2     0.900000E-01   1.00800           0
     21988 MEMB     190      CHL1     C17      CRL1    -0.900000E-01   12.0110           0
     21989 MEMB     190      CHL1     H17      HGA1     0.900000E-01   1.00800           0
     21990 MEMB     190      CHL1     C13      CRL1      0.00000       12.0110           0
     21991 MEMB     190      CHL1     C18      CTL3    -0.270000       12.0110           0
     21992 MEMB     190      CHL1     H18A     HAL3     0.900000E-01   1.00800           0
     21993 MEMB     190      CHL1     H18B     HAL3     0.900000E-01   1.00800           0
     21994 MEMB     190      CHL1     H18C     HAL3     0.900000E-01   1.00800           0
     21995 MEMB     190      CHL1     C12      CRL2    -0.180000       12.0110           0
     21996 MEMB     190      CHL1     H12A     HGA2     0.900000E-01   1.00800           0
     21997 MEMB     190      CHL1     H12B     HGA2     0.900000E-01   1.00800           0
     21998 MEMB     190      CHL1     C11      CRL2    -0.180000       12.0110           0
     21999 MEMB     190      CHL1     H11A     HGA2     0.900000E-01   1.00800           0
     22000 MEMB     190      CHL1     H11B     HGA2     0.900000E-01   1.00800           0
     22001 MEMB     190      CHL1     C9       CRL1    -0.900000E-01   12.0110           0
     22002 MEMB     190      CHL1     H9       HGA1     0.900000E-01   1.00800           0
     22003 MEMB     190      CHL1     C10      CRL1      0.00000       12.0110           0
     22004 MEMB     190      CHL1     C19      CTL3    -0.270000       12.0110           0
     22005 MEMB     190      CHL1     H19A     HAL3     0.900000E-01   1.00800           0
     22006 MEMB     190      CHL1     H19B     HAL3     0.900000E-01   1.00800           0
     22007 MEMB     190      CHL1     H19C     HAL3     0.900000E-01   1.00800           0
     22008 MEMB     190      CHL1     C1       CRL2    -0.180000       12.0110           0
     22009 MEMB     190      CHL1     H1A      HGA2     0.900000E-01   1.00800           0
     22010 MEMB     190      CHL1     H1B      HGA2     0.900000E-01   1.00800           0
     22011 MEMB     190      CHL1     C2       CRL2    -0.180000       12.0110           0
     22012 MEMB     190      CHL1     H2A      HGA2     0.900000E-01   1.00800           0
     22013 MEMB     190      CHL1     H2B      HGA2     0.900000E-01   1.00800           0
     22014 MEMB     190      CHL1     C20      CTL1    -0.900000E-01   12.0110           0
     22015 MEMB     190      CHL1     H20      HAL1     0.900000E-01   1.00800           0
     22016 MEMB     190      CHL1     C21      CTL3    -0.270000       12.0110           0
     22017 MEMB     190      CHL1     H21A     HAL3     0.900000E-01   1.00800           0
     22018 MEMB     190      CHL1     H21B     HAL3     0.900000E-01   1.00800           0
     22019 MEMB     190      CHL1     H21C     HAL3     0.900000E-01   1.00800           0
     22020 MEMB     190      CHL1     C22      CTL2    -0.180000       12.0110           0
     22021 MEMB     190      CHL1     H22A     HAL2     0.900000E-01   1.00800           0
     22022 MEMB     190      CHL1     H22B     HAL2     0.900000E-01   1.00800           0
     22023 MEMB     190      CHL1     C23      CTL2    -0.180000       12.0110           0
     22024 MEMB     190      CHL1     H23A     HAL2     0.900000E-01   1.00800           0
     22025 MEMB     190      CHL1     H23B     HAL2     0.900000E-01   1.00800           0
     22026 MEMB     190      CHL1     C24      CTL2    -0.180000       12.0110           0
     22027 MEMB     190      CHL1     H24A     HAL2     0.900000E-01   1.00800           0
     22028 MEMB     190      CHL1     H24B     HAL2     0.900000E-01   1.00800           0
     22029 MEMB     190      CHL1     C25      CTL1    -0.900000E-01   12.0110           0
     22030 MEMB     190      CHL1     H25      HAL1     0.900000E-01   1.00800           0
     22031 MEMB     190      CHL1     C26      CTL3    -0.270000       12.0110           0
     22032 MEMB     190      CHL1     H26A     HAL3     0.900000E-01   1.00800           0
     22033 MEMB     190      CHL1     H26B     HAL3     0.900000E-01   1.00800           0
     22034 MEMB     190      CHL1     H26C     HAL3     0.900000E-01   1.00800           0
     22035 MEMB     190      CHL1     C27      CTL3    -0.270000       12.0110           0
     22036 MEMB     190      CHL1     H27A     HAL3     0.900000E-01   1.00800           0
     22037 MEMB     190      CHL1     H27B     HAL3     0.900000E-01   1.00800           0
     22038 MEMB     190      CHL1     H27C     HAL3     0.900000E-01   1.00800           0
     22039 MEMB     191      SAPC     N        NTL     -0.600000       14.0070           0
     22040 MEMB     191      SAPC     C12      CTL2    -0.100000       12.0110           0
     22041 MEMB     191      SAPC     H12A     HL       0.250000       1.00800           0
     22042 MEMB     191      SAPC     H12B     HL       0.250000       1.00800           0
     22043 MEMB     191      SAPC     C13      CTL5    -0.350000       12.0110           0
     22044 MEMB     191      SAPC     H13A     HL       0.250000       1.00800           0
     22045 MEMB     191      SAPC     H13B     HL       0.250000       1.00800           0
     22046 MEMB     191      SAPC     H13C     HL       0.250000       1.00800           0
     22047 MEMB     191      SAPC     C14      CTL5    -0.350000       12.0110           0
     22048 MEMB     191      SAPC     H14A     HL       0.250000       1.00800           0
     22049 MEMB     191      SAPC     H14B     HL       0.250000       1.00800           0
     22050 MEMB     191      SAPC     H14C     HL       0.250000       1.00800           0
     22051 MEMB     191      SAPC     C15      CTL5    -0.350000       12.0110           0
     22052 MEMB     191      SAPC     H15A     HL       0.250000       1.00800           0
     22053 MEMB     191      SAPC     H15B     HL       0.250000       1.00800           0
     22054 MEMB     191      SAPC     H15C     HL       0.250000       1.00800           0
     22055 MEMB     191      SAPC     C11      CTL2    -0.800000E-01   12.0110           0
     22056 MEMB     191      SAPC     H11A     HAL2     0.900000E-01   1.00800           0
     22057 MEMB     191      SAPC     H11B     HAL2     0.900000E-01   1.00800           0
     22058 MEMB     191      SAPC     P        PL        1.50000       30.9740           0
     22059 MEMB     191      SAPC     O13      O2L     -0.780000       15.9994           0
     22060 MEMB     191      SAPC     O14      O2L     -0.780000       15.9994           0
     22061 MEMB     191      SAPC     O12      OSLP    -0.570000       15.9994           0
     22062 MEMB     191      SAPC     O11      OSLP    -0.570000       15.9994           0
     22063 MEMB     191      SAPC     C1       CTL2    -0.800000E-01   12.0110           0
     22064 MEMB     191      SAPC     HA       HAL2     0.900000E-01   1.00800           0
     22065 MEMB     191      SAPC     HB       HAL2     0.900000E-01   1.00800           0
     22066 MEMB     191      SAPC     C2       CTL1     0.170000       12.0110           0
     22067 MEMB     191      SAPC     HS       HAL1     0.900000E-01   1.00800           0
     22068 MEMB     191      SAPC     O21      OSL     -0.490000       15.9994           0
     22069 MEMB     191      SAPC     C21      CL       0.900000       12.0110           0
     22070 MEMB     191      SAPC     O22      OBL     -0.630000       15.9994           0
     22071 MEMB     191      SAPC     C22      CTL2    -0.220000       12.0110           0
     22072 MEMB     191      SAPC     H2R      HAL2     0.900000E-01   1.00800           0
     22073 MEMB     191      SAPC     H2S      HAL2     0.900000E-01   1.00800           0
     22074 MEMB     191      SAPC     C3       CTL2     0.800000E-01   12.0110           0
     22075 MEMB     191      SAPC     HX       HAL2     0.900000E-01   1.00800           0
     22076 MEMB     191      SAPC     HY       HAL2     0.900000E-01   1.00800           0
     22077 MEMB     191      SAPC     O31      OSL     -0.490000       15.9994           0
     22078 MEMB     191      SAPC     C31      CL       0.900000       12.0110           0
     22079 MEMB     191      SAPC     O32      OBL     -0.630000       15.9994           0
     22080 MEMB     191      SAPC     C32      CTL2    -0.220000       12.0110           0
     22081 MEMB     191      SAPC     H2X      HAL2     0.900000E-01   1.00800           0
     22082 MEMB     191      SAPC     H2Y      HAL2     0.900000E-01   1.00800           0
     22083 MEMB     191      SAPC     C23      CTL2    -0.180000       12.0110           0
     22084 MEMB     191      SAPC     H3R      HAL2     0.900000E-01   1.00800           0
     22085 MEMB     191      SAPC     H3S      HAL2     0.900000E-01   1.00800           0
     22086 MEMB     191      SAPC     C24      CTL2    -0.180000       12.0110           0
     22087 MEMB     191      SAPC     H4R      HAL2     0.900000E-01   1.00800           0
     22088 MEMB     191      SAPC     H4S      HAL2     0.900000E-01   1.00800           0
     22089 MEMB     191      SAPC     C25      CEL1    -0.150000       12.0110           0
     22090 MEMB     191      SAPC     H5R      HEL1     0.150000       1.00800           0
     22091 MEMB     191      SAPC     C26      CEL1    -0.150000       12.0110           0
     22092 MEMB     191      SAPC     H6R      HEL1     0.150000       1.00800           0
     22093 MEMB     191      SAPC     C27      CTL2    -0.180000       12.0110           0
     22094 MEMB     191      SAPC     H7R      HAL2     0.900000E-01   1.00800           0
     22095 MEMB     191      SAPC     H7S      HAL2     0.900000E-01   1.00800           0
     22096 MEMB     191      SAPC     C28      CEL1    -0.150000       12.0110           0
     22097 MEMB     191      SAPC     H8R      HEL1     0.150000       1.00800           0
     22098 MEMB     191      SAPC     C29      CEL1    -0.150000       12.0110           0
     22099 MEMB     191      SAPC     H9R      HEL1     0.150000       1.00800           0
     22100 MEMB     191      SAPC     C210     CTL2    -0.180000       12.0110           0
     22101 MEMB     191      SAPC     H10R     HAL2     0.900000E-01   1.00800           0
     22102 MEMB     191      SAPC     H10S     HAL2     0.900000E-01   1.00800           0
     22103 MEMB     191      SAPC     C211     CEL1    -0.150000       12.0110           0
     22104 MEMB     191      SAPC     H11R     HEL1     0.150000       1.00800           0
     22105 MEMB     191      SAPC     C212     CEL1    -0.150000       12.0110           0
     22106 MEMB     191      SAPC     H12R     HEL1     0.150000       1.00800           0
     22107 MEMB     191      SAPC     C213     CTL2    -0.180000       12.0110           0
     22108 MEMB     191      SAPC     H13R     HAL2     0.900000E-01   1.00800           0
     22109 MEMB     191      SAPC     H13S     HAL2     0.900000E-01   1.00800           0
     22110 MEMB     191      SAPC     C214     CEL1    -0.150000       12.0110           0
     22111 MEMB     191      SAPC     H14R     HEL1     0.150000       1.00800           0
     22112 MEMB     191      SAPC     C215     CEL1    -0.150000       12.0110           0
     22113 MEMB     191      SAPC     H15R     HEL1     0.150000       1.00800           0
     22114 MEMB     191      SAPC     C216     CTL2    -0.180000       12.0110           0
     22115 MEMB     191      SAPC     H16R     HAL2     0.900000E-01   1.00800           0
     22116 MEMB     191      SAPC     H16S     HAL2     0.900000E-01   1.00800           0
     22117 MEMB     191      SAPC     C217     CTL2    -0.180000       12.0110           0
     22118 MEMB     191      SAPC     H17R     HAL2     0.900000E-01   1.00800           0
     22119 MEMB     191      SAPC     H17S     HAL2     0.900000E-01   1.00800           0
     22120 MEMB     191      SAPC     C218     CTL2    -0.270000       12.0110           0
     22121 MEMB     191      SAPC     H18R     HAL2     0.900000E-01   1.00800           0
     22122 MEMB     191      SAPC     H18S     HAL2     0.900000E-01   1.00800           0
     22123 MEMB     191      SAPC     C219     CTL2    -0.180000       12.0110           0
     22124 MEMB     191      SAPC     H19R     HAL2     0.900000E-01   1.00800           0
     22125 MEMB     191      SAPC     H19S     HAL2     0.900000E-01   1.00800           0
     22126 MEMB     191      SAPC     C220     CTL3    -0.180000       12.0110           0
     22127 MEMB     191      SAPC     H20R     HAL3     0.900000E-01   1.00800           0
     22128 MEMB     191      SAPC     H20S     HAL3     0.900000E-01   1.00800           0
     22129 MEMB     191      SAPC     H20T     HAL3     0.900000E-01   1.00800           0
     22130 MEMB     191      SAPC     C33      CTL2    -0.180000       12.0110           0
     22131 MEMB     191      SAPC     H3X      HAL2     0.900000E-01   1.00800           0
     22132 MEMB     191      SAPC     H3Y      HAL2     0.900000E-01   1.00800           0
     22133 MEMB     191      SAPC     C34      CTL2    -0.180000       12.0110           0
     22134 MEMB     191      SAPC     H4X      HAL2     0.900000E-01   1.00800           0
     22135 MEMB     191      SAPC     H4Y      HAL2     0.900000E-01   1.00800           0
     22136 MEMB     191      SAPC     C35      CTL2    -0.180000       12.0110           0
     22137 MEMB     191      SAPC     H5X      HAL2     0.900000E-01   1.00800           0
     22138 MEMB     191      SAPC     H5Y      HAL2     0.900000E-01   1.00800           0
     22139 MEMB     191      SAPC     C36      CTL2    -0.180000       12.0110           0
     22140 MEMB     191      SAPC     H6X      HAL2     0.900000E-01   1.00800           0
     22141 MEMB     191      SAPC     H6Y      HAL2     0.900000E-01   1.00800           0
     22142 MEMB     191      SAPC     C37      CTL2    -0.180000       12.0110           0
     22143 MEMB     191      SAPC     H7X      HAL2     0.900000E-01   1.00800           0
     22144 MEMB     191      SAPC     H7Y      HAL2     0.900000E-01   1.00800           0
     22145 MEMB     191      SAPC     C38      CTL2    -0.180000       12.0110           0
     22146 MEMB     191      SAPC     H8X      HAL2     0.900000E-01   1.00800           0
     22147 MEMB     191      SAPC     H8Y      HAL2     0.900000E-01   1.00800           0
     22148 MEMB     191      SAPC     C39      CTL2    -0.180000       12.0110           0
     22149 MEMB     191      SAPC     H9X      HAL2     0.900000E-01   1.00800           0
     22150 MEMB     191      SAPC     H9Y      HAL2     0.900000E-01   1.00800           0
     22151 MEMB     191      SAPC     C310     CTL2    -0.180000       12.0110           0
     22152 MEMB     191      SAPC     H10X     HAL2     0.900000E-01   1.00800           0
     22153 MEMB     191      SAPC     H10Y     HAL2     0.900000E-01   1.00800           0
     22154 MEMB     191      SAPC     C311     CTL2    -0.180000       12.0110           0
     22155 MEMB     191      SAPC     H11X     HAL2     0.900000E-01   1.00800           0
     22156 MEMB     191      SAPC     H11Y     HAL2     0.900000E-01   1.00800           0
     22157 MEMB     191      SAPC     C312     CTL2    -0.180000       12.0110           0
     22158 MEMB     191      SAPC     H12X     HAL2     0.900000E-01   1.00800           0
     22159 MEMB     191      SAPC     H12Y     HAL2     0.900000E-01   1.00800           0
     22160 MEMB     191      SAPC     C313     CTL2    -0.180000       12.0110           0
     22161 MEMB     191      SAPC     H13X     HAL2     0.900000E-01   1.00800           0
     22162 MEMB     191      SAPC     H13Y     HAL2     0.900000E-01   1.00800           0
     22163 MEMB     191      SAPC     C314     CTL2    -0.180000       12.0110           0
     22164 MEMB     191      SAPC     H14X     HAL2     0.900000E-01   1.00800           0
     22165 MEMB     191      SAPC     H14Y     HAL2     0.900000E-01   1.00800           0
     22166 MEMB     191      SAPC     C315     CTL2    -0.180000       12.0110           0
     22167 MEMB     191      SAPC     H15X     HAL2     0.900000E-01   1.00800           0
     22168 MEMB     191      SAPC     H15Y     HAL2     0.900000E-01   1.00800           0
     22169 MEMB     191      SAPC     C316     CTL2    -0.180000       12.0110           0
     22170 MEMB     191      SAPC     H16X     HAL2     0.900000E-01   1.00800           0
     22171 MEMB     191      SAPC     H16Y     HAL2     0.900000E-01   1.00800           0
     22172 MEMB     191      SAPC     C317     CTL2    -0.180000       12.0110           0
     22173 MEMB     191      SAPC     H17X     HAL2     0.900000E-01   1.00800           0
     22174 MEMB     191      SAPC     H17Y     HAL2     0.900000E-01   1.00800           0
     22175 MEMB     191      SAPC     C318     CTL3    -0.270000       12.0110           0
     22176 MEMB     191      SAPC     H18X     HAL3     0.900000E-01   1.00800           0
     22177 MEMB     191      SAPC     H18Y     HAL3     0.900000E-01   1.00800           0
     22178 MEMB     191      SAPC     H18Z     HAL3     0.900000E-01   1.00800           0
     22179 MEMB     192      CHL1     C3       CRL1     0.140000       12.0110           0
     22180 MEMB     192      CHL1     H3       HGA1     0.900000E-01   1.00800           0
     22181 MEMB     192      CHL1     O3       OHL     -0.660000       15.9994           0
     22182 MEMB     192      CHL1     H3'      HOL      0.430000       1.00800           0
     22183 MEMB     192      CHL1     C4       CRL2    -0.180000       12.0110           0
     22184 MEMB     192      CHL1     H4A      HGA2     0.900000E-01   1.00800           0
     22185 MEMB     192      CHL1     H4B      HGA2     0.900000E-01   1.00800           0
     22186 MEMB     192      CHL1     C5       CEL1      0.00000       12.0110           0
     22187 MEMB     192      CHL1     C6       CEL1    -0.150000       12.0110           0
     22188 MEMB     192      CHL1     H6       HEL1     0.150000       1.00800           0
     22189 MEMB     192      CHL1     C7       CRL2    -0.180000       12.0110           0
     22190 MEMB     192      CHL1     H7A      HGA2     0.900000E-01   1.00800           0
     22191 MEMB     192      CHL1     H7B      HGA2     0.900000E-01   1.00800           0
     22192 MEMB     192      CHL1     C8       CRL1    -0.900000E-01   12.0110           0
     22193 MEMB     192      CHL1     H8       HGA1     0.900000E-01   1.00800           0
     22194 MEMB     192      CHL1     C14      CRL1    -0.900000E-01   12.0110           0
     22195 MEMB     192      CHL1     H14      HGA1     0.900000E-01   1.00800           0
     22196 MEMB     192      CHL1     C15      CRL2    -0.180000       12.0110           0
     22197 MEMB     192      CHL1     H15A     HGA2     0.900000E-01   1.00800           0
     22198 MEMB     192      CHL1     H15B     HGA2     0.900000E-01   1.00800           0
     22199 MEMB     192      CHL1     C16      CRL2    -0.180000       12.0110           0
     22200 MEMB     192      CHL1     H16A     HGA2     0.900000E-01   1.00800           0
     22201 MEMB     192      CHL1     H16B     HGA2     0.900000E-01   1.00800           0
     22202 MEMB     192      CHL1     C17      CRL1    -0.900000E-01   12.0110           0
     22203 MEMB     192      CHL1     H17      HGA1     0.900000E-01   1.00800           0
     22204 MEMB     192      CHL1     C13      CRL1      0.00000       12.0110           0
     22205 MEMB     192      CHL1     C18      CTL3    -0.270000       12.0110           0
     22206 MEMB     192      CHL1     H18A     HAL3     0.900000E-01   1.00800           0
     22207 MEMB     192      CHL1     H18B     HAL3     0.900000E-01   1.00800           0
     22208 MEMB     192      CHL1     H18C     HAL3     0.900000E-01   1.00800           0
     22209 MEMB     192      CHL1     C12      CRL2    -0.180000       12.0110           0
     22210 MEMB     192      CHL1     H12A     HGA2     0.900000E-01   1.00800           0
     22211 MEMB     192      CHL1     H12B     HGA2     0.900000E-01   1.00800           0
     22212 MEMB     192      CHL1     C11      CRL2    -0.180000       12.0110           0
     22213 MEMB     192      CHL1     H11A     HGA2     0.900000E-01   1.00800           0
     22214 MEMB     192      CHL1     H11B     HGA2     0.900000E-01   1.00800           0
     22215 MEMB     192      CHL1     C9       CRL1    -0.900000E-01   12.0110           0
     22216 MEMB     192      CHL1     H9       HGA1     0.900000E-01   1.00800           0
     22217 MEMB     192      CHL1     C10      CRL1      0.00000       12.0110           0
     22218 MEMB     192      CHL1     C19      CTL3    -0.270000       12.0110           0
     22219 MEMB     192      CHL1     H19A     HAL3     0.900000E-01   1.00800           0
     22220 MEMB     192      CHL1     H19B     HAL3     0.900000E-01   1.00800           0
     22221 MEMB     192      CHL1     H19C     HAL3     0.900000E-01   1.00800           0
     22222 MEMB     192      CHL1     C1       CRL2    -0.180000       12.0110           0
     22223 MEMB     192      CHL1     H1A      HGA2     0.900000E-01   1.00800           0
     22224 MEMB     192      CHL1     H1B      HGA2     0.900000E-01   1.00800           0
     22225 MEMB     192      CHL1     C2       CRL2    -0.180000       12.0110           0
     22226 MEMB     192      CHL1     H2A      HGA2     0.900000E-01   1.00800           0
     22227 MEMB     192      CHL1     H2B      HGA2     0.900000E-01   1.00800           0
     22228 MEMB     192      CHL1     C20      CTL1    -0.900000E-01   12.0110           0
     22229 MEMB     192      CHL1     H20      HAL1     0.900000E-01   1.00800           0
     22230 MEMB     192      CHL1     C21      CTL3    -0.270000       12.0110           0
     22231 MEMB     192      CHL1     H21A     HAL3     0.900000E-01   1.00800           0
     22232 MEMB     192      CHL1     H21B     HAL3     0.900000E-01   1.00800           0
     22233 MEMB     192      CHL1     H21C     HAL3     0.900000E-01   1.00800           0
     22234 MEMB     192      CHL1     C22      CTL2    -0.180000       12.0110           0
     22235 MEMB     192      CHL1     H22A     HAL2     0.900000E-01   1.00800           0
     22236 MEMB     192      CHL1     H22B     HAL2     0.900000E-01   1.00800           0
     22237 MEMB     192      CHL1     C23      CTL2    -0.180000       12.0110           0
     22238 MEMB     192      CHL1     H23A     HAL2     0.900000E-01   1.00800           0
     22239 MEMB     192      CHL1     H23B     HAL2     0.900000E-01   1.00800           0
     22240 MEMB     192      CHL1     C24      CTL2    -0.180000       12.0110           0
     22241 MEMB     192      CHL1     H24A     HAL2     0.900000E-01   1.00800           0
     22242 MEMB     192      CHL1     H24B     HAL2     0.900000E-01   1.00800           0
     22243 MEMB     192      CHL1     C25      CTL1    -0.900000E-01   12.0110           0
     22244 MEMB     192      CHL1     H25      HAL1     0.900000E-01   1.00800           0
     22245 MEMB     192      CHL1     C26      CTL3    -0.270000       12.0110           0
     22246 MEMB     192      CHL1     H26A     HAL3     0.900000E-01   1.00800           0
     22247 MEMB     192      CHL1     H26B     HAL3     0.900000E-01   1.00800           0
     22248 MEMB     192      CHL1     H26C     HAL3     0.900000E-01   1.00800           0
     22249 MEMB     192      CHL1     C27      CTL3    -0.270000       12.0110           0
     22250 MEMB     192      CHL1     H27A     HAL3     0.900000E-01   1.00800           0
     22251 MEMB     192      CHL1     H27B     HAL3     0.900000E-01   1.00800           0
     22252 MEMB     192      CHL1     H27C     HAL3     0.900000E-01   1.00800           0
     22253 TIP3     1        TIP3     OH2      OT      -0.834000       15.9994           0
     22254 TIP3     1        TIP3     H1       HT       0.417000       1.00800           0
     22255 TIP3     1        TIP3     H2       HT       0.417000       1.00800           0
     22256 TIP3     2        TIP3     OH2      OT      -0.834000       15.9994           0
     22257 TIP3     2        TIP3     H1       HT       0.417000       1.00800           0
     22258 TIP3     2        TIP3     H2       HT       0.417000       1.00800           0
     22259 TIP3     3        TIP3     OH2      OT      -0.834000       15.9994           0
     22260 TIP3     3        TIP3     H1       HT       0.417000       1.00800           0
     22261 TIP3     3        TIP3     H2       HT       0.417000       1.00800           0
     22262 TIP3     4        TIP3     OH2      OT      -0.834000       15.9994           0
     22263 TIP3     4        TIP3     H1       HT       0.417000       1.00800           0
     22264 TIP3     4        TIP3     H2       HT       0.417000       1.00800           0
     22265 TIP3     5        TIP3     OH2      OT      -0.834000       15.9994           0
     22266 TIP3     5        TIP3     H1       HT       0.417000       1.00800           0
     22267 TIP3     5        TIP3     H2       HT       0.417000       1.00800           0
     22268 TIP3     6        TIP3     OH2      OT      -0.834000       15.9994           0
     22269 TIP3     6        TIP3     H1       HT       0.417000       1.00800           0
     22270 TIP3     6        TIP3     H2       HT       0.417000       1.00800           0
     22271 TIP3     7        TIP3     OH2      OT      -0.834000       15.9994           0
     22272 TIP3     7        TIP3     H1       HT       0.417000       1.00800           0
     22273 TIP3     7        TIP3     H2       HT       0.417000       1.00800           0
     22274 TIP3     8        TIP3     OH2      OT      -0.834000       15.9994           0
     22275 TIP3     8        TIP3     H1       HT       0.417000       1.00800           0
     22276 TIP3     8        TIP3     H2       HT       0.417000       1.00800           0
     22277 TIP3     9        TIP3     OH2      OT      -0.834000       15.9994           0
     22278 TIP3     9        TIP3     H1       HT       0.417000       1.00800           0
     22279 TIP3     9        TIP3     H2       HT       0.417000       1.00800           0
     22280 TIP3     10       TIP3     OH2      OT      -0.834000       15.9994           0
     22281 TIP3     10       TIP3     H1       HT       0.417000       1.00800           0
     22282 TIP3     10       TIP3     H2       HT       0.417000       1.00800           0
     22283 TIP3     11       TIP3     OH2      OT      -0.834000       15.9994           0
     22284 TIP3     11       TIP3     H1       HT       0.417000       1.00800           0
     22285 TIP3     11       TIP3     H2       HT       0.417000       1.00800           0
     22286 TIP3     12       TIP3     OH2      OT      -0.834000       15.9994           0
     22287 TIP3     12       TIP3     H1       HT       0.417000       1.00800           0
     22288 TIP3     12       TIP3     H2       HT       0.417000       1.00800           0
     22289 TIP3     13       TIP3     OH2      OT      -0.834000       15.9994           0
     22290 TIP3     13       TIP3     H1       HT       0.417000       1.00800           0
     22291 TIP3     13       TIP3     H2       HT       0.417000       1.00800           0
     22292 TIP3     14       TIP3     OH2      OT      -0.834000       15.9994           0
     22293 TIP3     14       TIP3     H1       HT       0.417000       1.00800           0
     22294 TIP3     14       TIP3     H2       HT       0.417000       1.00800           0
     22295 TIP3     15       TIP3     OH2      OT      -0.834000       15.9994           0
     22296 TIP3     15       TIP3     H1       HT       0.417000       1.00800           0
     22297 TIP3     15       TIP3     H2       HT       0.417000       1.00800           0
     22298 TIP3     16       TIP3     OH2      OT      -0.834000       15.9994           0
     22299 TIP3     16       TIP3     H1       HT       0.417000       1.00800           0
     22300 TIP3     16       TIP3     H2       HT       0.417000       1.00800           0
     22301 TIP3     17       TIP3     OH2      OT      -0.834000       15.9994           0
     22302 TIP3     17       TIP3     H1       HT       0.417000       1.00800           0
     22303 TIP3     17       TIP3     H2       HT       0.417000       1.00800           0
     22304 TIP3     18       TIP3     OH2      OT      -0.834000       15.9994           0
     22305 TIP3     18       TIP3     H1       HT       0.417000       1.00800           0
     22306 TIP3     18       TIP3     H2       HT       0.417000       1.00800           0
     22307 TIP3     19       TIP3     OH2      OT      -0.834000       15.9994           0
     22308 TIP3     19       TIP3     H1       HT       0.417000       1.00800           0
     22309 TIP3     19       TIP3     H2       HT       0.417000       1.00800           0
     22310 TIP3     20       TIP3     OH2      OT      -0.834000       15.9994           0
     22311 TIP3     20       TIP3     H1       HT       0.417000       1.00800           0
     22312 TIP3     20       TIP3     H2       HT       0.417000       1.00800           0
     22313 TIP3     21       TIP3     OH2      OT      -0.834000       15.9994           0
     22314 TIP3     21       TIP3     H1       HT       0.417000       1.00800           0
     22315 TIP3     21       TIP3     H2       HT       0.417000       1.00800           0
     22316 TIP3     22       TIP3     OH2      OT      -0.834000       15.9994           0
     22317 TIP3     22       TIP3     H1       HT       0.417000       1.00800           0
     22318 TIP3     22       TIP3     H2       HT       0.417000       1.00800           0
     22319 TIP3     23       TIP3     OH2      OT      -0.834000       15.9994           0
     22320 TIP3     23       TIP3     H1       HT       0.417000       1.00800           0
     22321 TIP3     23       TIP3     H2       HT       0.417000       1.00800           0
     22322 TIP3     24       TIP3     OH2      OT      -0.834000       15.9994           0
     22323 TIP3     24       TIP3     H1       HT       0.417000       1.00800           0
     22324 TIP3     24       TIP3     H2       HT       0.417000       1.00800           0
     22325 TIP3     25       TIP3     OH2      OT      -0.834000       15.9994           0
     22326 TIP3     25       TIP3     H1       HT       0.417000       1.00800           0
     22327 TIP3     25       TIP3     H2       HT       0.417000       1.00800           0
     22328 TIP3     26       TIP3     OH2      OT      -0.834000       15.9994           0
     22329 TIP3     26       TIP3     H1       HT       0.417000       1.00800           0
     22330 TIP3     26       TIP3     H2       HT       0.417000       1.00800           0
     22331 TIP3     27       TIP3     OH2      OT      -0.834000       15.9994           0
     22332 TIP3     27       TIP3     H1       HT       0.417000       1.00800           0
     22333 TIP3     27       TIP3     H2       HT       0.417000       1.00800           0
     22334 TIP3     28       TIP3     OH2      OT      -0.834000       15.9994           0
     22335 TIP3     28       TIP3     H1       HT       0.417000       1.00800           0
     22336 TIP3     28       TIP3     H2       HT       0.417000       1.00800           0
     22337 TIP3     29       TIP3     OH2      OT      -0.834000       15.9994           0
     22338 TIP3     29       TIP3     H1       HT       0.417000       1.00800           0
     22339 TIP3     29       TIP3     H2       HT       0.417000       1.00800           0
     22340 TIP3     30       TIP3     OH2      OT      -0.834000       15.9994           0
     22341 TIP3     30       TIP3     H1       HT       0.417000       1.00800           0
     22342 TIP3     30       TIP3     H2       HT       0.417000       1.00800           0
     22343 TIP3     31       TIP3     OH2      OT      -0.834000       15.9994           0
     22344 TIP3     31       TIP3     H1       HT       0.417000       1.00800           0
     22345 TIP3     31       TIP3     H2       HT       0.417000       1.00800           0
     22346 TIP3     32       TIP3     OH2      OT      -0.834000       15.9994           0
     22347 TIP3     32       TIP3     H1       HT       0.417000       1.00800           0
     22348 TIP3     32       TIP3     H2       HT       0.417000       1.00800           0
     22349 TIP3     33       TIP3     OH2      OT      -0.834000       15.9994           0
     22350 TIP3     33       TIP3     H1       HT       0.417000       1.00800           0
     22351 TIP3     33       TIP3     H2       HT       0.417000       1.00800           0
     22352 TIP3     34       TIP3     OH2      OT      -0.834000       15.9994           0
     22353 TIP3     34       TIP3     H1       HT       0.417000       1.00800           0
     22354 TIP3     34       TIP3     H2       HT       0.417000       1.00800           0
     22355 TIP3     35       TIP3     OH2      OT      -0.834000       15.9994           0
     22356 TIP3     35       TIP3     H1       HT       0.417000       1.00800           0
     22357 TIP3     35       TIP3     H2       HT       0.417000       1.00800           0
     22358 TIP3     36       TIP3     OH2      OT      -0.834000       15.9994           0
     22359 TIP3     36       TIP3     H1       HT       0.417000       1.00800           0
     22360 TIP3     36       TIP3     H2       HT       0.417000       1.00800           0
     22361 TIP3     37       TIP3     OH2      OT      -0.834000       15.9994           0
     22362 TIP3     37       TIP3     H1       HT       0.417000       1.00800           0
     22363 TIP3     37       TIP3     H2       HT       0.417000       1.00800           0
     22364 TIP3     38       TIP3     OH2      OT      -0.834000       15.9994           0
     22365 TIP3     38       TIP3     H1       HT       0.417000       1.00800           0
     22366 TIP3     38       TIP3     H2       HT       0.417000       1.00800           0
     22367 TIP3     39       TIP3     OH2      OT      -0.834000       15.9994           0
     22368 TIP3     39       TIP3     H1       HT       0.417000       1.00800           0
     22369 TIP3     39       TIP3     H2       HT       0.417000       1.00800           0
     22370 TIP3     40       TIP3     OH2      OT      -0.834000       15.9994           0
     22371 TIP3     40       TIP3     H1       HT       0.417000       1.00800           0
     22372 TIP3     40       TIP3     H2       HT       0.417000       1.00800           0
     22373 TIP3     41       TIP3     OH2      OT      -0.834000       15.9994           0
     22374 TIP3     41       TIP3     H1       HT       0.417000       1.00800           0
     22375 TIP3     41       TIP3     H2       HT       0.417000       1.00800           0
     22376 TIP3     42       TIP3     OH2      OT      -0.834000       15.9994           0
     22377 TIP3     42       TIP3     H1       HT       0.417000       1.00800           0
     22378 TIP3     42       TIP3     H2       HT       0.417000       1.00800           0
     22379 TIP3     43       TIP3     OH2      OT      -0.834000       15.9994           0
     22380 TIP3     43       TIP3     H1       HT       0.417000       1.00800           0
     22381 TIP3     43       TIP3     H2       HT       0.417000       1.00800           0
     22382 TIP3     44       TIP3     OH2      OT      -0.834000       15.9994           0
     22383 TIP3     44       TIP3     H1       HT       0.417000       1.00800           0
     22384 TIP3     44       TIP3     H2       HT       0.417000       1.00800           0
     22385 TIP3     45       TIP3     OH2      OT      -0.834000       15.9994           0
     22386 TIP3     45       TIP3     H1       HT       0.417000       1.00800           0
     22387 TIP3     45       TIP3     H2       HT       0.417000       1.00800           0
     22388 TIP3     46       TIP3     OH2      OT      -0.834000       15.9994           0
     22389 TIP3     46       TIP3     H1       HT       0.417000       1.00800           0
     22390 TIP3     46       TIP3     H2       HT       0.417000       1.00800           0
     22391 TIP3     47       TIP3     OH2      OT      -0.834000       15.9994           0
     22392 TIP3     47       TIP3     H1       HT       0.417000       1.00800           0
     22393 TIP3     47       TIP3     H2       HT       0.417000       1.00800           0
     22394 TIP3     48       TIP3     OH2      OT      -0.834000       15.9994           0
     22395 TIP3     48       TIP3     H1       HT       0.417000       1.00800           0
     22396 TIP3     48       TIP3     H2       HT       0.417000       1.00800           0
     22397 TIP3     49       TIP3     OH2      OT      -0.834000       15.9994           0
     22398 TIP3     49       TIP3     H1       HT       0.417000       1.00800           0
     22399 TIP3     49       TIP3     H2       HT       0.417000       1.00800           0
     22400 TIP3     50       TIP3     OH2      OT      -0.834000       15.9994           0
     22401 TIP3     50       TIP3     H1       HT       0.417000       1.00800           0
     22402 TIP3     50       TIP3     H2       HT       0.417000       1.00800           0
     22403 TIP3     51       TIP3     OH2      OT      -0.834000       15.9994           0
     22404 TIP3     51       TIP3     H1       HT       0.417000       1.00800           0
     22405 TIP3     51       TIP3     H2       HT       0.417000       1.00800           0
     22406 TIP3     52       TIP3     OH2      OT      -0.834000       15.9994           0
     22407 TIP3     52       TIP3     H1       HT       0.417000       1.00800           0
     22408 TIP3     52       TIP3     H2       HT       0.417000       1.00800           0
     22409 TIP3     53       TIP3     OH2      OT      -0.834000       15.9994           0
     22410 TIP3     53       TIP3     H1       HT       0.417000       1.00800           0
     22411 TIP3     53       TIP3     H2       HT       0.417000       1.00800           0
     22412 TIP3     54       TIP3     OH2      OT      -0.834000       15.9994           0
     22413 TIP3     54       TIP3     H1       HT       0.417000       1.00800           0
     22414 TIP3     54       TIP3     H2       HT       0.417000       1.00800           0
     22415 TIP3     55       TIP3     OH2      OT      -0.834000       15.9994           0
     22416 TIP3     55       TIP3     H1       HT       0.417000       1.00800           0
     22417 TIP3     55       TIP3     H2       HT       0.417000       1.00800           0
     22418 TIP3     56       TIP3     OH2      OT      -0.834000       15.9994           0
     22419 TIP3     56       TIP3     H1       HT       0.417000       1.00800           0
     22420 TIP3     56       TIP3     H2       HT       0.417000       1.00800           0
     22421 TIP3     57       TIP3     OH2      OT      -0.834000       15.9994           0
     22422 TIP3     57       TIP3     H1       HT       0.417000       1.00800           0
     22423 TIP3     57       TIP3     H2       HT       0.417000       1.00800           0
     22424 TIP3     58       TIP3     OH2      OT      -0.834000       15.9994           0
     22425 TIP3     58       TIP3     H1       HT       0.417000       1.00800           0
     22426 TIP3     58       TIP3     H2       HT       0.417000       1.00800           0
     22427 TIP3     59       TIP3     OH2      OT      -0.834000       15.9994           0
     22428 TIP3     59       TIP3     H1       HT       0.417000       1.00800           0
     22429 TIP3     59       TIP3     H2       HT       0.417000       1.00800           0
     22430 TIP3     60       TIP3     OH2      OT      -0.834000       15.9994           0
     22431 TIP3     60       TIP3     H1       HT       0.417000       1.00800           0
     22432 TIP3     60       TIP3     H2       HT       0.417000       1.00800           0
     22433 TIP3     61       TIP3     OH2      OT      -0.834000       15.9994           0
     22434 TIP3     61       TIP3     H1       HT       0.417000       1.00800           0
     22435 TIP3     61       TIP3     H2       HT       0.417000       1.00800           0
     22436 TIP3     62       TIP3     OH2      OT      -0.834000       15.9994           0
     22437 TIP3     62       TIP3     H1       HT       0.417000       1.00800           0
     22438 TIP3     62       TIP3     H2       HT       0.417000       1.00800           0
     22439 TIP3     63       TIP3     OH2      OT      -0.834000       15.9994           0
     22440 TIP3     63       TIP3     H1       HT       0.417000       1.00800           0
     22441 TIP3     63       TIP3     H2       HT       0.417000       1.00800           0
     22442 TIP3     64       TIP3     OH2      OT      -0.834000       15.9994           0
     22443 TIP3     64       TIP3     H1       HT       0.417000       1.00800           0
     22444 TIP3     64       TIP3     H2       HT       0.417000       1.00800           0
     22445 TIP3     65       TIP3     OH2      OT      -0.834000       15.9994           0
     22446 TIP3     65       TIP3     H1       HT       0.417000       1.00800           0
     22447 TIP3     65       TIP3     H2       HT       0.417000       1.00800           0
     22448 TIP3     66       TIP3     OH2      OT      -0.834000       15.9994           0
     22449 TIP3     66       TIP3     H1       HT       0.417000       1.00800           0
     22450 TIP3     66       TIP3     H2       HT       0.417000       1.00800           0
     22451 TIP3     67       TIP3     OH2      OT      -0.834000       15.9994           0
     22452 TIP3     67       TIP3     H1       HT       0.417000       1.00800           0
     22453 TIP3     67       TIP3     H2       HT       0.417000       1.00800           0
     22454 TIP3     68       TIP3     OH2      OT      -0.834000       15.9994           0
     22455 TIP3     68       TIP3     H1       HT       0.417000       1.00800           0
     22456 TIP3     68       TIP3     H2       HT       0.417000       1.00800           0
     22457 TIP3     69       TIP3     OH2      OT      -0.834000       15.9994           0
     22458 TIP3     69       TIP3     H1       HT       0.417000       1.00800           0
     22459 TIP3     69       TIP3     H2       HT       0.417000       1.00800           0
     22460 TIP3     70       TIP3     OH2      OT      -0.834000       15.9994           0
     22461 TIP3     70       TIP3     H1       HT       0.417000       1.00800           0
     22462 TIP3     70       TIP3     H2       HT       0.417000       1.00800           0
     22463 TIP3     71       TIP3     OH2      OT      -0.834000       15.9994           0
     22464 TIP3     71       TIP3     H1       HT       0.417000       1.00800           0
     22465 TIP3     71       TIP3     H2       HT       0.417000       1.00800           0
     22466 TIP3     72       TIP3     OH2      OT      -0.834000       15.9994           0
     22467 TIP3     72       TIP3     H1       HT       0.417000       1.00800           0
     22468 TIP3     72       TIP3     H2       HT       0.417000       1.00800           0
     22469 TIP3     73       TIP3     OH2      OT      -0.834000       15.9994           0
     22470 TIP3     73       TIP3     H1       HT       0.417000       1.00800           0
     22471 TIP3     73       TIP3     H2       HT       0.417000       1.00800           0
     22472 TIP3     74       TIP3     OH2      OT      -0.834000       15.9994           0
     22473 TIP3     74       TIP3     H1       HT       0.417000       1.00800           0
     22474 TIP3     74       TIP3     H2       HT       0.417000       1.00800           0
     22475 TIP3     75       TIP3     OH2      OT      -0.834000       15.9994           0
     22476 TIP3     75       TIP3     H1       HT       0.417000       1.00800           0
     22477 TIP3     75       TIP3     H2       HT       0.417000       1.00800           0
     22478 TIP3     76       TIP3     OH2      OT      -0.834000       15.9994           0
     22479 TIP3     76       TIP3     H1       HT       0.417000       1.00800           0
     22480 TIP3     76       TIP3     H2       HT       0.417000       1.00800           0
     22481 TIP3     77       TIP3     OH2      OT      -0.834000       15.9994           0
     22482 TIP3     77       TIP3     H1       HT       0.417000       1.00800           0
     22483 TIP3     77       TIP3     H2       HT       0.417000       1.00800           0
     22484 TIP3     78       TIP3     OH2      OT      -0.834000       15.9994           0
     22485 TIP3     78       TIP3     H1       HT       0.417000       1.00800           0
     22486 TIP3     78       TIP3     H2       HT       0.417000       1.00800           0
     22487 TIP3     79       TIP3     OH2      OT      -0.834000       15.9994           0
     22488 TIP3     79       TIP3     H1       HT       0.417000       1.00800           0
     22489 TIP3     79       TIP3     H2       HT       0.417000       1.00800           0
     22490 TIP3     80       TIP3     OH2      OT      -0.834000       15.9994           0
     22491 TIP3     80       TIP3     H1       HT       0.417000       1.00800           0
     22492 TIP3     80       TIP3     H2       HT       0.417000       1.00800           0
     22493 TIP3     81       TIP3     OH2      OT      -0.834000       15.9994           0
     22494 TIP3     81       TIP3     H1       HT       0.417000       1.00800           0
     22495 TIP3     81       TIP3     H2       HT       0.417000       1.00800           0
     22496 TIP3     82       TIP3     OH2      OT      -0.834000       15.9994           0
     22497 TIP3     82       TIP3     H1       HT       0.417000       1.00800           0
     22498 TIP3     82       TIP3     H2       HT       0.417000       1.00800           0
     22499 TIP3     83       TIP3     OH2      OT      -0.834000       15.9994           0
     22500 TIP3     83       TIP3     H1       HT       0.417000       1.00800           0
     22501 TIP3     83       TIP3     H2       HT       0.417000       1.00800           0
     22502 TIP3     84       TIP3     OH2      OT      -0.834000       15.9994           0
     22503 TIP3     84       TIP3     H1       HT       0.417000       1.00800           0
     22504 TIP3     84       TIP3     H2       HT       0.417000       1.00800           0
     22505 TIP3     85       TIP3     OH2      OT      -0.834000       15.9994           0
     22506 TIP3     85       TIP3     H1       HT       0.417000       1.00800           0
     22507 TIP3     85       TIP3     H2       HT       0.417000       1.00800           0
     22508 TIP3     86       TIP3     OH2      OT      -0.834000       15.9994           0
     22509 TIP3     86       TIP3     H1       HT       0.417000       1.00800           0
     22510 TIP3     86       TIP3     H2       HT       0.417000       1.00800           0
     22511 TIP3     87       TIP3     OH2      OT      -0.834000       15.9994           0
     22512 TIP3     87       TIP3     H1       HT       0.417000       1.00800           0
     22513 TIP3     87       TIP3     H2       HT       0.417000       1.00800           0
     22514 TIP3     88       TIP3     OH2      OT      -0.834000       15.9994           0
     22515 TIP3     88       TIP3     H1       HT       0.417000       1.00800           0
     22516 TIP3     88       TIP3     H2       HT       0.417000       1.00800           0
     22517 TIP3     89       TIP3     OH2      OT      -0.834000       15.9994           0
     22518 TIP3     89       TIP3     H1       HT       0.417000       1.00800           0
     22519 TIP3     89       TIP3     H2       HT       0.417000       1.00800           0
     22520 TIP3     90       TIP3     OH2      OT      -0.834000       15.9994           0
     22521 TIP3     90       TIP3     H1       HT       0.417000       1.00800           0
     22522 TIP3     90       TIP3     H2       HT       0.417000       1.00800           0
     22523 TIP3     91       TIP3     OH2      OT      -0.834000       15.9994           0
     22524 TIP3     91       TIP3     H1       HT       0.417000       1.00800           0
     22525 TIP3     91       TIP3     H2       HT       0.417000       1.00800           0
     22526 TIP3     92       TIP3     OH2      OT      -0.834000       15.9994           0
     22527 TIP3     92       TIP3     H1       HT       0.417000       1.00800           0
     22528 TIP3     92       TIP3     H2       HT       0.417000       1.00800           0
     22529 TIP3     93       TIP3     OH2      OT      -0.834000       15.9994           0
     22530 TIP3     93       TIP3     H1       HT       0.417000       1.00800           0
     22531 TIP3     93       TIP3     H2       HT       0.417000       1.00800           0
     22532 TIP3     94       TIP3     OH2      OT      -0.834000       15.9994           0
     22533 TIP3     94       TIP3     H1       HT       0.417000       1.00800           0
     22534 TIP3     94       TIP3     H2       HT       0.417000       1.00800           0
     22535 TIP3     95       TIP3     OH2      OT      -0.834000       15.9994           0
     22536 TIP3     95       TIP3     H1       HT       0.417000       1.00800           0
     22537 TIP3     95       TIP3     H2       HT       0.417000       1.00800           0
     22538 TIP3     96       TIP3     OH2      OT      -0.834000       15.9994           0
     22539 TIP3     96       TIP3     H1       HT       0.417000       1.00800           0
     22540 TIP3     96       TIP3     H2       HT       0.417000       1.00800           0
     22541 TIP3     97       TIP3     OH2      OT      -0.834000       15.9994           0
     22542 TIP3     97       TIP3     H1       HT       0.417000       1.00800           0
     22543 TIP3     97       TIP3     H2       HT       0.417000       1.00800           0
     22544 TIP3     98       TIP3     OH2      OT      -0.834000       15.9994           0
     22545 TIP3     98       TIP3     H1       HT       0.417000       1.00800           0
     22546 TIP3     98       TIP3     H2       HT       0.417000       1.00800           0
     22547 TIP3     99       TIP3     OH2      OT      -0.834000       15.9994           0
     22548 TIP3     99       TIP3     H1       HT       0.417000       1.00800           0
     22549 TIP3     99       TIP3     H2       HT       0.417000       1.00800           0
     22550 TIP3     100      TIP3     OH2      OT      -0.834000       15.9994           0
     22551 TIP3     100      TIP3     H1       HT       0.417000       1.00800           0
     22552 TIP3     100      TIP3     H2       HT       0.417000       1.00800           0
     22553 TIP3     101      TIP3     OH2      OT      -0.834000       15.9994           0
     22554 TIP3     101      TIP3     H1       HT       0.417000       1.00800           0
     22555 TIP3     101      TIP3     H2       HT       0.417000       1.00800           0
     22556 TIP3     102      TIP3     OH2      OT      -0.834000       15.9994           0
     22557 TIP3     102      TIP3     H1       HT       0.417000       1.00800           0
     22558 TIP3     102      TIP3     H2       HT       0.417000       1.00800           0
     22559 TIP3     103      TIP3     OH2      OT      -0.834000       15.9994           0
     22560 TIP3     103      TIP3     H1       HT       0.417000       1.00800           0
     22561 TIP3     103      TIP3     H2       HT       0.417000       1.00800           0
     22562 TIP3     104      TIP3     OH2      OT      -0.834000       15.9994           0
     22563 TIP3     104      TIP3     H1       HT       0.417000       1.00800           0
     22564 TIP3     104      TIP3     H2       HT       0.417000       1.00800           0
     22565 TIP3     105      TIP3     OH2      OT      -0.834000       15.9994           0
     22566 TIP3     105      TIP3     H1       HT       0.417000       1.00800           0
     22567 TIP3     105      TIP3     H2       HT       0.417000       1.00800           0
     22568 TIP3     106      TIP3     OH2      OT      -0.834000       15.9994           0
     22569 TIP3     106      TIP3     H1       HT       0.417000       1.00800           0
     22570 TIP3     106      TIP3     H2       HT       0.417000       1.00800           0

     22606 !NBOND: bonds
         1         2         1         3         1         4         1         5
         9         7         7         5         7         8         5         6
         5        10        18        17        10        11        10        12
        10        16        16        13        13        17        13        14
        13        15        18        19        18        20        18        21
        21        22        21        29        21        23        29        30
        29        31        29        32        23        24        24        26
        24        25        26        27        26        28        26        38
        38        39        38        40        38        41        41        42
        41        43        41        44        44        45        44        46
        46        47        46        48        48        49        48        50
        48        51        51        52        51        53        53        54
        53        55        55        56        55        57        55        58
        58        59        58        60        60        61        60        62
        62        63        62        64        62        65        65        66
        65        67        67        68        67        69        69        70
        69        71        69        72        72        73        72        74
        72        75        75        76        75        77        75        78
        78        79        78        80        78        81        81        82
        81        83        81        84        32        33        33        35
        33        34        35        36        35        37        35        85
        85        86        85        87        85        88        88        89
        88        90        88        91        91        92        91        93
        91        94        94        95        94        96        94        97
        97        98        97        99        97       100       100       101
       100       102       100       103       103       104       103       105
       103       106       106       107       106       108       106       109
       109       110       109       111       109       112       112       113
       112       114       112       115       115       116       115       117
       115       118       118       119       118       120       118       121
       121       122       121       123       121       124       124       125
       124       126       124       127       127       128       127       129
       127       130       130       131       130       132       130       133
       134       136       134       135       136       137       134       180
       180       181       180       182       180       177       177       178
       177       179       134       138       138       139       138       140
       138       141       141       172       172       177       172       173
       173       174       173       175       173       176       141       142
       142       143       142       144       144       145       144       146
       144       147       147       148       147       170       170       171
       170       172       147       149       149       150       149       159
       159       164       164       165       164       166       164       167
       167       168       167       169       167       170       159       160
       160       161       160       162       160       163       149       151
       151       152       151       153       151       154       154       155
       154       156       154       157       157       158       157       159
       157       183       183       184       183       185       185       186
       185       187       185       188       183       189       189       190
       189       191       189       192       192       193       192       194
       192       195       195       196       195       197       195       198
       198       199       198       200       200       201       200       202
       200       203       198       204       204       205       204       206
       204       207       208       209       208       210       208       211
       208       212       212       213       212       214       212       215
       215       216       215       217       215       221       223       222
       221       218       218       222       218       219       218       220
       223       224       223       225       223       226       226       227
       226       234       226       228       234       235       234       236
       234       237       228       229       229       231       229       230
       231       232       231       233       231       243       243       244
       243       245       243       246       246       247       246       248
       246       249       249       250       249       251       249       252
       252       253       252       254       252       255       255       256
       255       257       255       258       258       259       258       260
       258       261       261       262       261       263       263       264
       263       265       265       266       265       267       265       268
       268       269       268       270       268       271       271       272
       271       273       271       274       274       275       274       276
       274       277       277       278       277       279       277       280
       280       281       280       282       280       283       283       284
       283       285       283       286       286       287       286       288
       286       289       237       238       238       240       238       239
       240       241       240       242       240       290       290       291
       290       292       290       293       293       294       293       295
       293       296       296       297       296       298       296       299
       299       300       299       301       299       302       302       303
       302       304       302       305       305       306       305       307
       305       308       308       309       308       310       308       311
       311       312       311       313       311       314       314       315
       314       316       314       317       317       318       317       319
       317       320       320       321       320       322       320       323
       323       324       323       325       323       326       326       327
       326       328       326       329       329       330       329       331
       329       332       332       333       332       334       332       335
       335       336       335       337       335       338       339       341
       339       340       341       342       339       385       385       386
       385       387       385       382       382       383       382       384
       339       343       343       344       343       345       343       346
       346       377       377       382       377       378       378       379
       378       380       378       381       346       347       347       348
       347       349       349       350       349       351       349       352
       352       353       352       375       375       376       375       377
       352       354       354       355       354       364       364       369
       369       370       369       371       369       372       372       373
       372       374       372       375       364       365       365       366
       365       367       365       368       354       356       356       357
       356       358       356       359       359       360       359       361
       359       362       362       363       362       364       362       388
       388       389       388       390       390       391       390       392
       390       393       388       394       394       395       394       396
       394       397       397       398       397       399       397       400
       400       401       400       402       400       403       403       404
       403       405       405       406       405       407       405       408
       403       409       409       410       409       411       409       412
       413       417       413       421       413       425       417       418
       417       419       417       420       421       422       421       423
       421       424       425       426       425       427       425       428
       413       414       414       415       414       416       414       429
       429       430       429       431       429       435       436       437
       435       432       432       436       432       433       432       434
       437       438       437       439       437       440       440       441
       440       448       440       442       448       449       448       450
       448       451       442       443       443       445       443       444
       445       446       445       447       445       457       457       458
       457       459       457       460       460       461       460       462
       460       463       463       464       463       465       465       466
       465       467       467       468       467       469       467       470
       470       471       470       472       472       473       472       474
       474       475       474       476       474       477       477       478
       477       479       479       480       479       481       481       482
       481       483       481       484       484       485       484       486
       486       487       486       488       488       489       488       490
       488       491       491       492       491       493       491       494
       494       495       494       496       494       497       497       498
       497       499       497       500       500       501       500       502
       500       503       451       452       452       454       452       453
       454       455       454       456       454       504       504       505
       504       506       504       507       507       508       507       509
       507       510       510       511       510       512       510       513
       513       514       513       515       513       516       516       517
       516       518       516       519       519       520       519       521
       519       522       522       523       522       524       522       525
       525       526       525       527       525       528       528       529
       528       530       528       531       531       532       531       533
       531       534       534       535       534       536       534       537
       537       538       537       539       537       540       540       541
       540       542       540       543       543       544       543       545
       543       546       546       547       546       548       546       549
       549       550       549       551       549       552       628       629
       628       630       628       631       628       625       625       626
       625       627       625       622       622       623       622       624
       622       619       619       620       619       621       619       616
       616       617       616       618       616       613       613       614
       613       615       613       610       610       611       610       612
       610       607       607       608       607       609       607       604
       604       605       604       606       604       601       601       602
       601       603       601       598       598       599       598       600
       598       595       595       596       595       597       595       592
       592       593       592       594       592       590       590       591
       588       589       588       584       584       585       584       586
       586       587       584       582       582       583       582       577
       577       578       577       579       577       575       575       572
       576       572       573       572       574       572       576       569
       569       570       569       571       569       566       566       567
       566       568       566       553       553       562       553       558
       553       554       562       563       562       564       562       565
       558       559       558       560       558       561       554       555
       554       556       554       557       582       580       580       581
       580       632       632       634       634       635       634       636
       634       637       637       638       637       639       637       640
       640       641       640       642       640       643       643       644
       643       645       643       646       646       647       646       648
       646       649       649       650       649       651       649       652
       652       653       652       654       652       655       655       656
       657       658       657       659       659       660       659       661
       659       662       662       663       662       664       662       665
       665       666       665       667       665       668       668       669
       668       670       668       671       671       672       671       673
       671       674       674       675       674       676       674       677
       677       678       677       679       677       680       680       681
       680       682       680       683       588       590       655       657
       632       633       684       686       684       685       686       687
       684       730       730       731       730       732       730       727
       727       728       727       729       684       688       688       689
       688       690       688       691       691       722       722       727
       722       723       723       724       723       725       723       726
       691       692       692       693       692       694       694       695
       694       696       694       697       697       698       697       720
       720       721       720       722       697       699       699       700
       699       709       709       714       714       715       714       716
       714       717       717       718       717       719       717       720
       709       710       710       711       710       712       710       713
       699       701       701       702       701       703       701       704
       704       705       704       706       704       707       707       708
       707       709       707       733       733       734       733       735
       735       736       735       737       735       738       733       739
       739       740       739       741       739       742       742       743
       742       744       742       745       745       746       745       747
       745       748       748       749       748       750       750       751
       750       752       750       753       748       754       754       755
       754       756       754       757       758       760       758       759
       760       761       758       804       804       805       804       806
       804       801       801       802       801       803       758       762
       762       763       762       764       762       765       765       796
       796       801       796       797       797       798       797       799
       797       800       765       766       766       767       766       768
       768       769       768       770       768       771       771       772
       771       794       794       795       794       796       771       773
       773       774       773       783       783       788       788       789
       788       790       788       791       791       792       791       793
       791       794       783       784       784       785       784       786
       784       787       773       775       775       776       775       777
       775       778       778       779       778       780       778       781
       781       782       781       783       781       807       807       808
       807       809       809       810       809       811       809       812
       807       813       813       814       813       815       813       816
       816       817       816       818       816       819       819       820
       819       821       819       822       822       823       822       824
       824       825       824       826       824       827       822       828
       828       829       828       830       828       831       907       908
       907       909       907       910       907       904       904       905
       904       906       904       901       901       902       901       903
       901       898       898       899       898       900       898       895
       895       896       895       897       895       892       892       893
       892       894       892       889       889       890       889       891
       889       886       886       887       886       888       886       883
       883       884       883       885       883       880       880       881
       880       882       880       877       877       878       877       879
       877       874       874       875       874       876       874       871
       871       872       871       873       871       869       869       870
       867       868       867       863       863       864       863       865
       865       866       863       861       861       862       861       856
       856       857       856       858       856       854       854       851
       855       851       852       851       853       851       855       848
       848       849       848       850       848       845       845       846
       845       847       845       832       832       841       832       837
       832       833       841       842       841       843       841       844
       837       838       837       839       837       840       833       834
       833       835       833       836       861       859       859       860
       859       911       911       913       913       914       913       915
       913       916       916       917       916       918       916       919
       919       920       919       921       919       922       922       923
       922       924       922       925       925       926       925       927
       925       928       928       929       928       930       928       931
       931       932       931       933       931       934       934       935
       936       937       936       938       938       939       938       940
       938       941       941       942       941       943       941       944
       944       945       944       946       944       947       947       948
       947       949       947       950       950       951       950       952
       950       953       953       954       953       955       953       956
       956       957       956       958       956       959       959       960
       959       961       959       962       867       869       934       936
       911       912       963       964       963       965       963       966
       963       967       967       968       967       969       967       970
       970       971       970       972       970       976       978       977
       976       973       973       977       973       974       973       975
       978       979       978       980       978       981       981       982
       981       989       981       983       989       990       989       991
       989       992       983       984       984       986       984       985
       986       987       986       988       986       998       998       999
       998      1000       998      1001      1001      1002      1001      1003
      1001      1004      1004      1005      1004      1006      1004      1007
      1007      1008      1007      1009      1007      1010      1010      1011
      1010      1012      1010      1013      1013      1014      1013      1015
      1013      1016      1016      1017      1016      1018      1018      1019
      1018      1020      1020      1021      1020      1022      1020      1023
      1023      1024      1023      1025      1023      1026      1026      1027
      1026      1028      1026      1029      1029      1030      1029      1031
      1029      1032      1032      1033      1032      1034      1032      1035
      1035      1036      1035      1037      1035      1038      1038      1039
      1038      1040      1038      1041      1041      1042      1041      1043
      1041      1044       992       993       993       995       993       994
       995       996       995       997       995      1045      1045      1046
      1045      1047      1045      1048      1048      1049      1048      1050
      1048      1051      1051      1052      1051      1053      1051      1054
      1054      1055      1054      1056      1054      1057      1057      1058
      1057      1059      1057      1060      1060      1061      1060      1062
      1060      1063      1063      1064      1063      1065      1063      1066
      1066      1067      1066      1068      1066      1069      1069      1070
      1069      1071      1069      1072      1072      1073      1072      1074
      1072      1075      1075      1076      1075      1077      1075      1078
      1078      1079      1078      1080      1078      1081      1081      1082
      1081      1083      1081      1084      1084      1085      1084      1086
      1084      1087      1087      1088      1087      1089      1087      1090
      1090      1091      1090      1092      1090      1093      1169      1170
      1169      1171      1169      1172      1169      1166      1166      1167
      1166      1168      1166      1163      1163      1164      1163      1165
      1163      1160      1160      1161      1160      1162      1160      1157
      1157      1158      1157      1159      1157      1154      1154      1155
      1154      1156      1154      1151      1151      1152      1151      1153
      1151      1148      1148      1149      1148      1150      1148      1145
      1145      1146      1145      1147      1145      1142      1142      1143
      1142      1144      1142      1139      1139      1140      1139      1141
      1139      1136      1136      1137      1136      1138      1136      1133
      1133      1134      1133      1135      1133      1131      1131      1132
      1129      1130      1129      1125      1125      1126      1125      1127
      1127      1128      1125      1123      1123      1124      1123      1118
      1118      1119      1118      1120      1118      1116      1116      1113
      1117      1113      1114      1113      1115      1113      1117      1110
      1110      1111      1110      1112      1110      1107      1107      1108
      1107      1109      1107      1094      1094      1103      1094      1099
      1094      1095      1103      1104      1103      1105      1103      1106
      1099      1100      1099      1101      1099      1102      1095      1096
      1095      1097      1095      1098      1123      1121      1121      1122
      1121      1173      1173      1175      1175      1176      1175      1177
      1175      1178      1178      1179      1178      1180      1178      1181
      1181      1182      1181      1183      1181      1184      1184      1185
      1184      1186      1184      1187      1187      1188      1187      1189
      1187      1190      1190      1191      1190      1192      1190      1193
      1193      1194      1193      1195      1193      1196      1196      1197
      1198      1199      1198      1200      1200      1201      1200      1202
      1200      1203      1203      1204      1203      1205      1203      1206
      1206      1207      1206      1208      1206      1209      1209      1210
      1209      1211      1209      1212      1212      1213      1212      1214
      1212      1215      1215      1216      1215      1217      1215      1218
      1218      1219      1218      1220      1218      1221      1221      1222
      1221      1223      1221      1224      1129      1131      1196      1198
      1173      1174      1225      1227      1225      1226      1227      1228
      1225      1271      1271      1272      1271      1273      1271      1268
      1268      1269      1268      1270      1225      1229      1229      1230
      1229      1231      1229      1232      1232      1263      1263      1268
      1263      1264      1264      1265      1264      1266      1264      1267
      1232      1233      1233      1234      1233      1235      1235      1236
      1235      1237      1235      1238      1238      1239      1238      1261
      1261      1262      1261      1263      1238      1240      1240      1241
      1240      1250      1250      1255      1255      1256      1255      1257
      1255      1258      1258      1259      1258      1260      1258      1261
      1250      1251      1251      1252      1251      1253      1251      1254
      1240      1242      1242      1243      1242      1244      1242      1245
      1245      1246      1245      1247      1245      1248      1248      1249
      1248      1250      1248      1274      1274      1275      1274      1276
      1276      1277      1276      1278      1276      1279      1274      1280
      1280      1281      1280      1282      1280      1283      1283      1284
      1283      1285      1283      1286      1286      1287      1286      1288
      1286      1289      1289      1290      1289      1291      1291      1292
      1291      1293      1291      1294      1289      1295      1295      1296
      1295      1297      1295      1298      1299      1301      1299      1300
      1301      1302      1299      1345      1345      1346      1345      1347
      1345      1342      1342      1343      1342      1344      1299      1303
      1303      1304      1303      1305      1303      1306      1306      1337
      1337      1342      1337      1338      1338      1339      1338      1340
      1338      1341      1306      1307      1307      1308      1307      1309
      1309      1310      1309      1311      1309      1312      1312      1313
      1312      1335      1335      1336      1335      1337      1312      1314
      1314      1315      1314      1324      1324      1329      1329      1330
      1329      1331      1329      1332      1332      1333      1332      1334
      1332      1335      1324      1325      1325      1326      1325      1327
      1325      1328      1314      1316      1316      1317      1316      1318
      1316      1319      1319      1320      1319      1321      1319      1322
      1322      1323      1322      1324      1322      1348      1348      1349
      1348      1350      1350      1351      1350      1352      1350      1353
      1348      1354      1354      1355      1354      1356      1354      1357
      1357      1358      1357      1359      1357      1360      1360      1361
      1360      1362      1360      1363      1363      1364      1363      1365
      1365      1366      1365      1367      1365      1368      1363      1369
      1369      1370      1369      1371      1369      1372      1373      1375
      1373      1374      1375      1376      1373      1419      1419      1420
      1419      1421      1419      1416      1416      1417      1416      1418
      1373      1377      1377      1378      1377      1379      1377      1380
      1380      1411      1411      1416      1411      1412      1412      1413
      1412      1414      1412      1415      1380      1381      1381      1382
      1381      1383      1383      1384      1383      1385      1383      1386
      1386      1387      1386      1409      1409      1410      1409      1411
      1386      1388      1388      1389      1388      1398      1398      1403
      1403      1404      1403      1405      1403      1406      1406      1407
      1406      1408      1406      1409      1398      1399      1399      1400
      1399      1401      1399      1402      1388      1390      1390      1391
      1390      1392      1390      1393      1393      1394      1393      1395
      1393      1396      1396      1397      1396      1398      1396      1422
      1422      1423      1422      1424      1424      1425      1424      1426
      1424      1427      1422      1428      1428      1429      1428      1430
      1428      1431      1431      1432      1431      1433      1431      1434
      1434      1435      1434      1436      1434      1437      1437      1438
      1437      1439      1439      1440      1439      1441      1439      1442
      1437      1443      1443      1444      1443      1445      1443      1446
      1522      1523      1522      1524      1522      1525      1522      1519
      1519      1520      1519      1521      1519      1516      1516      1517
      1516      1518      1516      1513      1513      1514      1513      1515
      1513      1510      1510      1511      1510      1512      1510      1507
      1507      1508      1507      1509      1507      1504      1504      1505
      1504      1506      1504      1501      1501      1502      1501      1503
      1501      1498      1498      1499      1498      1500      1498      1495
      1495      1496      1495      1497      1495      1492      1492      1493
      1492      1494      1492      1489      1489      1490      1489      1491
      1489      1486      1486      1487      1486      1488      1486      1484
      1484      1485      1482      1483      1482      1478      1478      1479
      1478      1480      1480      1481      1478      1476      1476      1477
      1476      1471      1471      1472      1471      1473      1471      1469
      1469      1466      1470      1466      1467      1466      1468      1466
      1470      1463      1463      1464      1463      1465      1463      1460
      1460      1461      1460      1462      1460      1447      1447      1456
      1447      1452      1447      1448      1456      1457      1456      1458
      1456      1459      1452      1453      1452      1454      1452      1455
      1448      1449      1448      1450      1448      1451      1476      1474
      1474      1475      1474      1526      1526      1528      1528      1529
      1528      1530      1528      1531      1531      1532      1531      1533
      1531      1534      1534      1535      1534      1536      1534      1537
      1537      1538      1537      1539      1537      1540      1540      1541
      1540      1542      1540      1543      1543      1544      1543      1545
      1543      1546      1546      1547      1546      1548      1546      1549
      1549      1550      1551      1552      1551      1553      1553      1554
      1553      1555      1553      1556      1556      1557      1556      1558
      1556      1559      1559      1560      1559      1561      1559      1562
      1562      1563      1562      1564      1562      1565      1565      1566
      1565      1567      1565      1568      1568      1569      1568      1570
      1568      1571      1571      1572      1571      1573      1571      1574
      1574      1575      1574      1576      1574      1577      1482      1484
      1549      1551      1526      1527      1578      1580      1578      1579
      1580      1581      1578      1624      1624      1625      1624      1626
      1624      1621      1621      1622      1621      1623      1578      1582
      1582      1583      1582      1584      1582      1585      1585      1616
      1616      1621      1616      1617      1617      1618      1617      1619
      1617      1620      1585      1586      1586      1587      1586      1588
      1588      1589      1588      1590      1588      1591      1591      1592
      1591      1614      1614      1615      1614      1616      1591      1593
      1593      1594      1593      1603      1603      1608      1608      1609
      1608      1610      1608      1611      1611      1612      1611      1613
      1611      1614      1603      1604      1604      1605      1604      1606
      1604      1607      1593      1595      1595      1596      1595      1597
      1595      1598      1598      1599      1598      1600      1598      1601
      1601      1602      1601      1603      1601      1627      1627      1628
      1627      1629      1629      1630      1629      1631      1629      1632
      1627      1633      1633      1634      1633      1635      1633      1636
      1636      1637      1636      1638      1636      1639      1639      1640
      1639      1641      1639      1642      1642      1643      1642      1644
      1644      1645      1644      1646      1644      1647      1642      1648
      1648      1649      1648      1650      1648      1651      1727      1728
      1727      1729      1727      1730      1727      1724      1724      1725
      1724      1726      1724      1721      1721      1722      1721      1723
      1721      1718      1718      1719      1718      1720      1718      1715
      1715      1716      1715      1717      1715      1712      1712      1713
      1712      1714      1712      1709      1709      1710      1709      1711
      1709      1706      1706      1707      1706      1708      1706      1703
      1703      1704      1703      1705      1703      1700      1700      1701
      1700      1702      1700      1697      1697      1698      1697      1699
      1697      1694      1694      1695      1694      1696      1694      1691
      1691      1692      1691      1693      1691      1689      1689      1690
      1687      1688      1687      1683      1683      1684      1683      1685
      1685      1686      1683      1681      1681      1682      1681      1676
      1676      1677      1676      1678      1676      1674      1674      1671
      1675      1671      1672      1671      1673      1671      1675      1668
      1668      1669      1668      1670      1668      1665      1665      1666
      1665      1667      1665      1652      1652      1661      1652      1657
      1652      1653      1661      1662      1661      1663      1661      1664
      1657      1658      1657      1659      1657      1660      1653      1654
      1653      1655      1653      1656      1681      1679      1679      1680
      1679      1731      1731      1733      1733      1734      1733      1735
      1733      1736      1736      1737      1736      1738      1736      1739
      1739      1740      1739      1741      1739      1742      1742      1743
      1742      1744      1742      1745      1745      1746      1745      1747
      1745      1748      1748      1749      1748      1750      1748      1751
      1751      1752      1751      1753      1751      1754      1754      1755
      1756      1757      1756      1758      1758      1759      1758      1760
      1758      1761      1761      1762      1761      1763      1761      1764
      1764      1765      1764      1766      1764      1767      1767      1768
      1767      1769      1767      1770      1770      1771      1770      1772
      1770      1773      1773      1774      1773      1775      1773      1776
      1776      1777      1776      1778      1776      1779      1779      1780
      1779      1781      1779      1782      1687      1689      1754      1756
      1731      1732      1783      1784      1783      1785      1783      1786
      1783      1787      1787      1788      1787      1789      1787      1790
      1790      1791      1790      1792      1790      1796      1798      1797
      1796      1793      1793      1797      1793      1794      1793      1795
      1798      1799      1798      1800      1798      1801      1801      1802
      1801      1809      1801      1803      1809      1810      1809      1811
      1809      1812      1803      1804      1804      1806      1804      1805
      1806      1807      1806      1808      1806      1818      1818      1819
      1818      1820      1818      1821      1821      1822      1821      1823
      1821      1824      1824      1825      1824      1826      1824      1827
      1827      1828      1827      1829      1827      1830      1830      1831
      1830      1832      1830      1833      1833      1834      1833      1835
      1833      1836      1836      1837      1836      1838      1838      1839
      1838      1840      1840      1841      1840      1842      1840      1843
      1843      1844      1843      1845      1843      1846      1846      1847
      1846      1848      1846      1849      1849      1850      1849      1851
      1849      1852      1852      1853      1852      1854      1852      1855
      1855      1856      1855      1857      1855      1858      1858      1859
      1858      1860      1858      1861      1861      1862      1861      1863
      1861      1864      1812      1813      1813      1815      1813      1814
      1815      1816      1815      1817      1815      1865      1865      1866
      1865      1867      1865      1868      1868      1869      1868      1870
      1868      1871      1871      1872      1871      1873      1871      1874
      1874      1875      1874      1876      1874      1877      1877      1878
      1877      1879      1877      1880      1880      1881      1880      1882
      1880      1883      1883      1884      1883      1885      1883      1886
      1886      1887      1886      1888      1886      1889      1889      1890
      1889      1891      1889      1892      1892      1893      1892      1894
      1892      1895      1895      1896      1895      1897      1895      1898
      1898      1899      1898      1900      1898      1901      1901      1902
      1901      1903      1901      1904      1904      1905      1904      1906
      1904      1907      1907      1908      1907      1909      1907      1910
      1910      1911      1910      1912      1910      1913      1914      1916
      1914      1915      1916      1917      1914      1960      1960      1961
      1960      1962      1960      1957      1957      1958      1957      1959
      1914      1918      1918      1919      1918      1920      1918      1921
      1921      1952      1952      1957      1952      1953      1953      1954
      1953      1955      1953      1956      1921      1922      1922      1923
      1922      1924      1924      1925      1924      1926      1924      1927
      1927      1928      1927      1950      1950      1951      1950      1952
      1927      1929      1929      1930      1929      1939      1939      1944
      1944      1945      1944      1946      1944      1947      1947      1948
      1947      1949      1947      1950      1939      1940      1940      1941
      1940      1942      1940      1943      1929      1931      1931      1932
      1931      1933      1931      1934      1934      1935      1934      1936
      1934      1937      1937      1938      1937      1939      1937      1963
      1963      1964      1963      1965      1965      1966      1965      1967
      1965      1968      1963      1969      1969      1970      1969      1971
      1969      1972      1972      1973      1972      1974      1972      1975
      1975      1976      1975      1977      1975      1978      1978      1979
      1978      1980      1980      1981      1980      1982      1980      1983
      1978      1984      1984      1985      1984      1986      1984      1987
      1988      1989      1988      1990      1988      1991      1988      1992
      1992      1993      1992      1994      1992      1995      1995      1996
      1995      1997      1995      2001      2003      2002      2001      1998
      1998      2002      1998      1999      1998      2000      2003      2004
      2003      2005      2003      2006      2006      2007      2006      2014
      2006      2008      2014      2015      2014      2016      2014      2017
      2008      2009      2009      2011      2009      2010      2011      2012
      2011      2013      2011      2023      2023      2024      2023      2025
      2023      2026      2026      2027      2026      2028      2026      2029
      2029      2030      2029      2031      2031      2032      2031      2033
      2033      2034      2033      2035      2033      2036      2036      2037
      2036      2038      2038      2039      2038      2040      2040      2041
      2040      2042      2040      2043      2043      2044      2043      2045
      2045      2046      2045      2047      2047      2048      2047      2049
      2047      2050      2050      2051      2050      2052      2052      2053
      2052      2054      2054      2055      2054      2056      2054      2057
      2057      2058      2057      2059      2057      2060      2060      2061
      2060      2062      2060      2063      2063      2064      2063      2065
      2063      2066      2066      2067      2066      2068      2066      2069
      2017      2018      2018      2020      2018      2019      2020      2021
      2020      2022      2020      2070      2070      2071      2070      2072
      2070      2073      2073      2074      2073      2075      2073      2076
      2076      2077      2076      2078      2076      2079      2079      2080
      2079      2081      2079      2082      2082      2083      2082      2084
      2082      2085      2085      2086      2085      2087      2085      2088
      2088      2089      2088      2090      2088      2091      2091      2092
      2091      2093      2091      2094      2094      2095      2094      2096
      2094      2097      2097      2098      2097      2099      2097      2100
      2100      2101      2100      2102      2100      2103      2103      2104
      2103      2105      2103      2106      2106      2107      2106      2108
      2106      2109      2109      2110      2109      2111      2109      2112
      2112      2113      2112      2114      2112      2115      2115      2116
      2115      2117      2115      2118      2119      2121      2119      2120
      2121      2122      2119      2165      2165      2166      2165      2167
      2165      2162      2162      2163      2162      2164      2119      2123
      2123      2124      2123      2125      2123      2126      2126      2157
      2157      2162      2157      2158      2158      2159      2158      2160
      2158      2161      2126      2127      2127      2128      2127      2129
      2129      2130      2129      2131      2129      2132      2132      2133
      2132      2155      2155      2156      2155      2157      2132      2134
      2134      2135      2134      2144      2144      2149      2149      2150
      2149      2151      2149      2152      2152      2153      2152      2154
      2152      2155      2144      2145      2145      2146      2145      2147
      2145      2148      2134      2136      2136      2137      2136      2138
      2136      2139      2139      2140      2139      2141      2139      2142
      2142      2143      2142      2144      2142      2168      2168      2169
      2168      2170      2170      2171      2170      2172      2170      2173
      2168      2174      2174      2175      2174      2176      2174      2177
      2177      2178      2177      2179      2177      2180      2180      2181
      2180      2182      2180      2183      2183      2184      2183      2185
      2185      2186      2185      2187      2185      2188      2183      2189
      2189      2190      2189      2191      2189      2192      2193      2194
      2193      2195      2193      2196      2193      2197      2197      2198
      2197      2199      2197      2200      2200      2201      2200      2202
      2200      2206      2208      2207      2206      2203      2203      2207
      2203      2204      2203      2205      2208      2209      2208      2210
      2208      2211      2211      2212      2211      2219      2211      2213
      2219      2220      2219      2221      2219      2222      2213      2214
      2214      2216      2214      2215      2216      2217      2216      2218
      2216      2228      2228      2229      2228      2230      2228      2231
      2231      2232      2231      2233      2231      2234      2234      2235
      2234      2236      2234      2237      2237      2238      2237      2239
      2237      2240      2240      2241      2240      2242      2240      2243
      2243      2244      2243      2245      2243      2246      2246      2247
      2246      2248      2248      2249      2248      2250      2250      2251
      2250      2252      2250      2253      2253      2254      2253      2255
      2253      2256      2256      2257      2256      2258      2256      2259
      2259      2260      2259      2261      2259      2262      2262      2263
      2262      2264      2262      2265      2265      2266      2265      2267
      2265      2268      2268      2269      2268      2270      2268      2271
      2271      2272      2271      2273      2271      2274      2222      2223
      2223      2225      2223      2224      2225      2226      2225      2227
      2225      2275      2275      2276      2275      2277      2275      2278
      2278      2279      2278      2280      2278      2281      2281      2282
      2281      2283      2281      2284      2284      2285      2284      2286
      2284      2287      2287      2288      2287      2289      2287      2290
      2290      2291      2290      2292      2290      2293      2293      2294
      2293      2295      2293      2296      2296      2297      2296      2298
      2296      2299      2299      2300      2299      2301      2299      2302
      2302      2303      2302      2304      2302      2305      2305      2306
      2305      2307      2305      2308      2308      2309      2308      2310
      2308      2311      2311      2312      2311      2313      2311      2314
      2314      2315      2314      2316      2314      2317      2317      2318
      2317      2319      2317      2320      2320      2321      2320      2322
      2320      2323      2324      2325      2324      2326      2324      2327
      2324      2328      2328      2329      2328      2330      2328      2331
      2331      2332      2331      2333      2331      2337      2339      2338
      2337      2334      2334      2338      2334      2335      2334      2336
      2339      2340      2339      2341      2339      2342      2342      2343
      2342      2350      2342      2344      2350      2351      2350      2352
      2350      2353      2344      2345      2345      2347      2345      2346
      2347      2348      2347      2349      2347      2359      2359      2360
      2359      2361      2359      2362      2362      2363      2362      2364
      2362      2365      2365      2366      2365      2367      2367      2368
      2367      2369      2369      2370      2369      2371      2369      2372
      2372      2373      2372      2374      2374      2375      2374      2376
      2376      2377      2376      2378      2376      2379      2379      2380
      2379      2381      2381      2382      2381      2383      2383      2384
      2383      2385      2383      2386      2386      2387      2386      2388
      2388      2389      2388      2390      2390      2391      2390      2392
      2390      2393      2393      2394      2393      2395      2393      2396
      2396      2397      2396      2398      2396      2399      2399      2400
      2399      2401      2399      2402      2402      2403      2402      2404
      2402      2405      2353      2354      2354      2356      2354      2355
      2356      2357      2356      2358      2356      2406      2406      2407
      2406      2408      2406      2409      2409      2410      2409      2411
      2409      2412      2412      2413      2412      2414      2412      2415
      2415      2416      2415      2417      2415      2418      2418      2419
      2418      2420      2418      2421      2421      2422      2421      2423
      2421      2424      2424      2425      2424      2426      2424      2427
      2427      2428      2427      2429      2427      2430      2430      2431
      2430      2432      2430      2433      2433      2434      2433      2435
      2433      2436      2436      2437      2436      2438      2436      2439
      2439      2440      2439      2441      2439      2442      2442      2443
      2442      2444      2442      2445      2445      2446      2445      2447
      2445      2448      2448      2449      2448      2450      2448      2451
      2451      2452      2451      2453      2451      2454      2455      2456
      2455      2457      2455      2458      2455      2459      2463      2461
      2461      2459      2461      2462      2459      2460      2459      2464
      2472      2471      2464      2465      2464      2466      2464      2470
      2470      2467      2467      2471      2467      2468      2467      2469
      2472      2473      2472      2474      2472      2475      2475      2476
      2475      2483      2475      2477      2483      2484      2483      2485
      2483      2486      2477      2478      2478      2480      2478      2479
      2480      2481      2480      2482      2480      2492      2492      2493
      2492      2494      2492      2495      2495      2496      2495      2497
      2495      2498      2498      2499      2498      2500      2500      2501
      2500      2502      2502      2503      2502      2504      2502      2505
      2505      2506      2505      2507      2507      2508      2507      2509
      2509      2510      2509      2511      2509      2512      2512      2513
      2512      2514      2514      2515      2514      2516      2516      2517
      2516      2518      2516      2519      2519      2520      2519      2521
      2521      2522      2521      2523      2523      2524      2523      2525
      2523      2526      2526      2527      2526      2528      2526      2529
      2529      2530      2529      2531      2529      2532      2532      2533
      2532      2534      2532      2535      2535      2536      2535      2537
      2535      2538      2486      2487      2487      2489      2487      2488
      2489      2490      2489      2491      2489      2539      2539      2540
      2539      2541      2539      2542      2542      2543      2542      2544
      2542      2545      2545      2546      2545      2547      2545      2548
      2548      2549      2548      2550      2548      2551      2551      2552
      2551      2553      2551      2554      2554      2555      2554      2556
      2554      2557      2557      2558      2557      2559      2557      2560
      2560      2561      2560      2562      2560      2563      2563      2564
      2563      2565      2563      2566      2566      2567      2566      2568
      2566      2569      2569      2570      2569      2571      2569      2572
      2572      2573      2572      2574      2572      2575      2575      2576
      2575      2577      2575      2578      2578      2579      2578      2580
      2578      2581      2581      2582      2581      2583      2581      2584
      2584      2585      2584      2586      2584      2587      2588      2589
      2588      2590      2588      2591      2588      2592      2596      2594
      2594      2592      2594      2595      2592      2593      2592      2597
      2605      2604      2597      2598      2597      2599      2597      2603
      2603      2600      2600      2604      2600      2601      2600      2602
      2605      2606      2605      2607      2605      2608      2608      2609
      2608      2616      2608      2610      2616      2617      2616      2618
      2616      2619      2610      2611      2611      2613      2611      2612
      2613      2614      2613      2615      2613      2625      2625      2626
      2625      2627      2625      2628      2628      2629      2628      2630
      2628      2631      2631      2632      2631      2633      2633      2634
      2633      2635      2635      2636      2635      2637      2635      2638
      2638      2639      2638      2640      2640      2641      2640      2642
      2642      2643      2642      2644      2642      2645      2645      2646
      2645      2647      2647      2648      2647      2649      2649      2650
      2649      2651      2649      2652      2652      2653      2652      2654
      2654      2655      2654      2656      2656      2657      2656      2658
      2656      2659      2659      2660      2659      2661      2659      2662
      2662      2663      2662      2664      2662      2665      2665      2666
      2665      2667      2665      2668      2668      2669      2668      2670
      2668      2671      2619      2620      2620      2622      2620      2621
      2622      2623      2622      2624      2622      2672      2672      2673
      2672      2674      2672      2675      2675      2676      2675      2677
      2675      2678      2678      2679      2678      2680      2678      2681
      2681      2682      2681      2683      2681      2684      2684      2685
      2684      2686      2684      2687      2687      2688      2687      2689
      2687      2690      2690      2691      2690      2692      2690      2693
      2693      2694      2693      2695      2693      2696      2696      2697
      2696      2698      2696      2699      2699      2700      2699      2701
      2699      2702      2702      2703      2702      2704      2702      2705
      2705      2706      2705      2707      2705      2708      2708      2709
      2708      2710      2708      2711      2711      2712      2711      2713
      2711      2714      2714      2715      2714      2716      2714      2717
      2717      2718      2717      2719      2717      2720      2721      2722
      2721      2723      2721      2724      2721      2725      2729      2727
      2727      2725      2727      2728      2725      2726      2725      2730
      2738      2737      2730      2731      2730      2732      2730      2736
      2736      2733      2733      2737      2733      2734      2733      2735
      2738      2739      2738      2740      2738      2741      2741      2742
      2741      2749      2741      2743      2749      2750      2749      2751
      2749      2752      2743      2744      2744      2746      2744      2745
      2746      2747      2746      2748      2746      2758      2758      2759
      2758      2760      2758      2761      2761      2762      2761      2763
      2761      2764      2764      2765      2764      2766      2766      2767
      2766      2768      2768      2769      2768      2770      2768      2771
      2771      2772      2771      2773      2773      2774      2773      2775
      2775      2776      2775      2777      2775      2778      2778      2779
      2778      2780      2780      2781      2780      2782      2782      2783
      2782      2784      2782      2785      2785      2786      2785      2787
      2787      2788      2787      2789      2789      2790      2789      2791
      2789      2792      2792      2793      2792      2794      2792      2795
      2795      2796      2795      2797      2795      2798      2798      2799
      2798      2800      2798      2801      2801      2802      2801      2803
      2801      2804      2752      2753      2753      2755      2753      2754
      2755      2756      2755      2757      2755      2805      2805      2806
      2805      2807      2805      2808      2808      2809      2808      2810
      2808      2811      2811      2812      2811      2813      2811      2814
      2814      2815      2814      2816      2814      2817      2817      2818
      2817      2819      2817      2820      2820      2821      2820      2822
      2820      2823      2823      2824      2823      2825      2823      2826
      2826      2827      2826      2828      2826      2829      2829      2830
      2829      2831      2829      2832      2832      2833      2832      2834
      2832      2835      2835      2836      2835      2837      2835      2838
      2838      2839      2838      2840      2838      2841      2841      2842
      2841      2843      2841      2844      2844      2845      2844      2846
      2844      2847      2847      2848      2847      2849      2847      2850
      2850      2851      2850      2852      2850      2853      2854      2855
      2854      2856      2854      2857      2854      2858      2858      2859
      2858      2860      2858      2861      2861      2862      2861      2863
      2861      2867      2869      2868      2867      2864      2864      2868
      2864      2865      2864      2866      2869      2870      2869      2871
      2869      2872      2872      2873      2872      2880      2872      2874
      2880      2881      2880      2882      2880      2883      2874      2875
      2875      2877      2875      2876      2877      2878      2877      2879
      2877      2889      2889      2890      2889      2891      2889      2892
      2892      2893      2892      2894      2892      2895      2895      2896
      2895      2897      2897      2898      2897      2899      2899      2900
      2899      2901      2899      2902      2902      2903      2902      2904
      2904      2905      2904      2906      2906      2907      2906      2908
      2906      2909      2909      2910      2909      2911      2911      2912
      2911      2913      2913      2914      2913      2915      2913      2916
      2916      2917      2916      2918      2918      2919      2918      2920
      2920      2921      2920      2922      2920      2923      2923      2924
      2923      2925      2923      2926      2926      2927      2926      2928
      2926      2929      2929      2930      2929      2931      2929      2932
      2932      2933      2932      2934      2932      2935      2883      2884
      2884      2886      2884      2885      2886      2887      2886      2888
      2886      2936      2936      2937      2936      2938      2936      2939
      2939      2940      2939      2941      2939      2942      2942      2943
      2942      2944      2942      2945      2945      2946      2945      2947
      2945      2948      2948      2949      2948      2950      2948      2951
      2951      2952      2951      2953      2951      2954      2954      2955
      2954      2956      2954      2957      2957      2958      2957      2959
      2957      2960      2960      2961      2960      2962      2960      2963
      2963      2964      2963      2965      2963      2966      2966      2967
      2966      2968      2966      2969      2969      2970      2969      2971
      2969      2972      2972      2973      2972      2974      2972      2975
      2975      2976      2975      2977      2975      2978      2978      2979
      2978      2980      2978      2981      2981      2982      2981      2983
      2981      2984      2985      2986      2985      2987      2985      2988
      2985      2989      2989      2990      2989      2991      2989      2992
      2992      2993      2992      2994      2992      2998      3000      2999
      2998      2995      2995      2999      2995      2996      2995      2997
      3000      3001      3000      3002      3000      3003      3003      3004
      3003      3011      3003      3005      3011      3012      3011      3013
      3011      3014      3005      3006      3006      3008      3006      3007
      3008      3009      3008      3010      3008      3020      3020      3021
      3020      3022      3020      3023      3023      3024      3023      3025
      3023      3026      3026      3027      3026      3028      3028      3029
      3028      3030      3030      3031      3030      3032      3030      3033
      3033      3034      3033      3035      3035      3036      3035      3037
      3037      3038      3037      3039      3037      3040      3040      3041
      3040      3042      3042      3043      3042      3044      3044      3045
      3044      3046      3044      3047      3047      3048      3047      3049
      3049      3050      3049      3051      3051      3052      3051      3053
      3051      3054      3054      3055      3054      3056      3054      3057
      3057      3058      3057      3059      3057      3060      3060      3061
      3060      3062      3060      3063      3063      3064      3063      3065
      3063      3066      3014      3015      3015      3017      3015      3016
      3017      3018      3017      3019      3017      3067      3067      3068
      3067      3069      3067      3070      3070      3071      3070      3072
      3070      3073      3073      3074      3073      3075      3073      3076
      3076      3077      3076      3078      3076      3079      3079      3080
      3079      3081      3079      3082      3082      3083      3082      3084
      3082      3085      3085      3086      3085      3087      3085      3088
      3088      3089      3088      3090      3088      3091      3091      3092
      3091      3093      3091      3094      3094      3095      3094      3096
      3094      3097      3097      3098      3097      3099      3097      3100
      3100      3101      3100      3102      3100      3103      3103      3104
      3103      3105      3103      3106      3106      3107      3106      3108
      3106      3109      3109      3110      3109      3111      3109      3112
      3112      3113      3112      3114      3112      3115      3116      3117
      3116      3118      3116      3119      3116      3120      3120      3121
      3120      3122      3120      3123      3123      3124      3123      3125
      3123      3129      3131      3130      3129      3126      3126      3130
      3126      3127      3126      3128      3131      3132      3131      3133
      3131      3134      3134      3135      3134      3142      3134      3136
      3142      3143      3142      3144      3142      3145      3136      3137
      3137      3139      3137      3138      3139      3140      3139      3141
      3139      3151      3151      3152      3151      3153      3151      3154
      3154      3155      3154      3156      3154      3157      3157      3158
      3157      3159      3159      3160      3159      3161      3161      3162
      3161      3163      3161      3164      3164      3165      3164      3166
      3166      3167      3166      3168      3168      3169      3168      3170
      3168      3171      3171      3172      3171      3173      3173      3174
      3173      3175      3175      3176      3175      3177      3175      3178
      3178      3179      3178      3180      3180      3181      3180      3182
      3182      3183      3182      3184      3182      3185      3185      3186
      3185      3187      3185      3188      3188      3189      3188      3190
      3188      3191      3191      3192      3191      3193      3191      3194
      3194      3195      3194      3196      3194      3197      3145      3146
      3146      3148      3146      3147      3148      3149      3148      3150
      3148      3198      3198      3199      3198      3200      3198      3201
      3201      3202      3201      3203      3201      3204      3204      3205
      3204      3206      3204      3207      3207      3208      3207      3209
      3207      3210      3210      3211      3210      3212      3210      3213
      3213      3214      3213      3215      3213      3216      3216      3217
      3216      3218      3216      3219      3219      3220      3219      3221
      3219      3222      3222      3223      3222      3224      3222      3225
      3225      3226      3225      3227      3225      3228      3228      3229
      3228      3230      3228      3231      3231      3232      3231      3233
      3231      3234      3234      3235      3234      3236      3234      3237
      3237      3238      3237      3239      3237      3240      3240      3241
      3240      3242      3240      3243      3243      3244      3243      3245
      3243      3246      3247      3249      3247      3248      3249      3250
      3247      3293      3293      3294      3293      3295      3293      3290
      3290      3291      3290      3292      3247      3251      3251      3252
      3251      3253      3251      3254      3254      3285      3285      3290
      3285      3286      3286      3287      3286      3288      3286      3289
      3254      3255      3255      3256      3255      3257      3257      3258
      3257      3259      3257      3260      3260      3261      3260      3283
      3283      3284      3283      3285      3260      3262      3262      3263
      3262      3272      3272      3277      3277      3278      3277      3279
      3277      3280      3280      3281      3280      3282      3280      3283
      3272      3273      3273      3274      3273      3275      3273      3276
      3262      3264      3264      3265      3264      3266      3264      3267
      3267      3268      3267      3269      3267      3270      3270      3271
      3270      3272      3270      3296      3296      3297      3296      3298
      3298      3299      3298      3300      3298      3301      3296      3302
      3302      3303      3302      3304      3302      3305      3305      3306
      3305      3307      3305      3308      3308      3309      3308      3310
      3308      3311      3311      3312      3311      3313      3313      3314
      3313      3315      3313      3316      3311      3317      3317      3318
      3317      3319      3317      3320      3321      3322      3321      3323
      3321      3324      3321      3325      3325      3326      3325      3327
      3325      3328      3328      3329      3328      3330      3328      3334
      3336      3335      3334      3331      3331      3335      3331      3332
      3331      3333      3336      3337      3336      3338      3336      3339
      3339      3340      3339      3347      3339      3341      3347      3348
      3347      3349      3347      3350      3341      3342      3342      3344
      3342      3343      3344      3345      3344      3346      3344      3356
      3356      3357      3356      3358      3356      3359      3359      3360
      3359      3361      3359      3362      3362      3363      3362      3364
      3364      3365      3364      3366      3366      3367      3366      3368
      3366      3369      3369      3370      3369      3371      3371      3372
      3371      3373      3373      3374      3373      3375      3373      3376
      3376      3377      3376      3378      3378      3379      3378      3380
      3380      3381      3380      3382      3380      3383      3383      3384
      3383      3385      3385      3386      3385      3387      3387      3388
      3387      3389      3387      3390      3390      3391      3390      3392
      3390      3393      3393      3394      3393      3395      3393      3396
      3396      3397      3396      3398      3396      3399      3399      3400
      3399      3401      3399      3402      3350      3351      3351      3353
      3351      3352      3353      3354      3353      3355      3353      3403
      3403      3404      3403      3405      3403      3406      3406      3407
      3406      3408      3406      3409      3409      3410      3409      3411
      3409      3412      3412      3413      3412      3414      3412      3415
      3415      3416      3415      3417      3415      3418      3418      3419
      3418      3420      3418      3421      3421      3422      3421      3423
      3421      3424      3424      3425      3424      3426      3424      3427
      3427      3428      3427      3429      3427      3430      3430      3431
      3430      3432      3430      3433      3433      3434      3433      3435
      3433      3436      3436      3437      3436      3438      3436      3439
      3439      3440      3439      3441      3439      3442      3442      3443
      3442      3444      3442      3445      3445      3446      3445      3447
      3445      3448      3448      3449      3448      3450      3448      3451
      3452      3453      3452      3457      3452      3461      3453      3454
      3453      3455      3453      3456      3457      3458      3457      3459
      3457      3460      3461      3462      3461      3463      3461      3464
      3452      3465      3465      3466      3465      3467      3465      3468
      3468      3469      3468      3470      3468      3474      3475      3476
      3474      3471      3471      3475      3471      3472      3471      3473
      3476      3477      3476      3478      3476      3479      3479      3480
      3479      3487      3479      3481      3487      3488      3487      3489
      3487      3490      3481      3482      3482      3484      3482      3483
      3484      3485      3484      3486      3484      3496      3496      3497
      3496      3498      3496      3499      3499      3500      3499      3501
      3499      3502      3502      3503      3502      3504      3502      3505
      3505      3506      3505      3507      3505      3508      3508      3509
      3508      3510      3508      3511      3511      3512      3511      3513
      3511      3514      3514      3515      3514      3516      3516      3517
      3516      3518      3518      3519      3518      3520      3518      3521
      3521      3522      3521      3523      3523      3524      3523      3525
      3525      3526      3525      3527      3525      3528      3528      3529
      3528      3530      3528      3531      3531      3532      3531      3533
      3531      3534      3534      3535      3534      3536      3534      3537
      3537      3538      3537      3539      3537      3540      3490      3491
      3491      3493      3491      3492      3493      3494      3493      3495
      3493      3541      3541      3542      3541      3543      3541      3544
      3544      3545      3544      3546      3544      3547      3547      3548
      3547      3549      3547      3550      3550      3551      3550      3552
      3550      3553      3553      3554      3553      3555      3553      3556
      3556      3557      3556      3558      3556      3559      3559      3560
      3559      3561      3559      3562      3562      3563      3562      3564
      3562      3565      3565      3566      3565      3567      3565      3568
      3568      3569      3568      3570      3568      3571      3571      3572
      3571      3573      3571      3574      3574      3575      3574      3576
      3574      3577      3577      3578      3577      3579      3577      3580
      3580      3581      3580      3582      3580      3583      3583      3584
      3583      3585      3583      3586      3586      3587      3586      3588
      3586      3589      3590      3592      3590      3591      3592      3593
      3590      3636      3636      3637      3636      3638      3636      3633
      3633      3634      3633      3635      3590      3594      3594      3595
      3594      3596      3594      3597      3597      3628      3628      3633
      3628      3629      3629      3630      3629      3631      3629      3632
      3597      3598      3598      3599      3598      3600      3600      3601
      3600      3602      3600      3603      3603      3604      3603      3626
      3626      3627      3626      3628      3603      3605      3605      3606
      3605      3615      3615      3620      3620      3621      3620      3622
      3620      3623      3623      3624      3623      3625      3623      3626
      3615      3616      3616      3617      3616      3618      3616      3619
      3605      3607      3607      3608      3607      3609      3607      3610
      3610      3611      3610      3612      3610      3613      3613      3614
      3613      3615      3613      3639      3639      3640      3639      3641
      3641      3642      3641      3643      3641      3644      3639      3645
      3645      3646      3645      3647      3645      3648      3648      3649
      3648      3650      3648      3651      3651      3652      3651      3653
      3651      3654      3654      3655      3654      3656      3656      3657
      3656      3658      3656      3659      3654      3660      3660      3661
      3660      3662      3660      3663      3664      3665      3664      3666
      3664      3667      3664      3668      3668      3669      3668      3670
      3668      3671      3671      3672      3671      3673      3671      3677
      3679      3678      3677      3674      3674      3678      3674      3675
      3674      3676      3679      3680      3679      3681      3679      3682
      3682      3683      3682      3690      3682      3684      3690      3691
      3690      3692      3690      3693      3684      3685      3685      3687
      3685      3686      3687      3688      3687      3689      3687      3699
      3699      3700      3699      3701      3699      3702      3702      3703
      3702      3704      3702      3705      3705      3706      3705      3707
      3707      3708      3707      3709      3709      3710      3709      3711
      3709      3712      3712      3713      3712      3714      3714      3715
      3714      3716      3716      3717      3716      3718      3716      3719
      3719      3720      3719      3721      3721      3722      3721      3723
      3723      3724      3723      3725      3723      3726      3726      3727
      3726      3728      3728      3729      3728      3730      3730      3731
      3730      3732      3730      3733      3733      3734      3733      3735
      3733      3736      3736      3737      3736      3738      3736      3739
      3739      3740      3739      3741      3739      3742      3742      3743
      3742      3744      3742      3745      3693      3694      3694      3696
      3694      3695      3696      3697      3696      3698      3696      3746
      3746      3747      3746      3748      3746      3749      3749      3750
      3749      3751      3749      3752      3752      3753      3752      3754
      3752      3755      3755      3756      3755      3757      3755      3758
      3758      3759      3758      3760      3758      3761      3761      3762
      3761      3763      3761      3764      3764      3765      3764      3766
      3764      3767      3767      3768      3767      3769      3767      3770
      3770      3771      3770      3772      3770      3773      3773      3774
      3773      3775      3773      3776      3776      3777      3776      3778
      3776      3779      3779      3780      3779      3781      3779      3782
      3782      3783      3782      3784      3782      3785      3785      3786
      3785      3787      3785      3788      3788      3789      3788      3790
      3788      3791      3791      3792      3791      3793      3791      3794
      3795      3797      3795      3796      3797      3798      3795      3841
      3841      3842      3841      3843      3841      3838      3838      3839
      3838      3840      3795      3799      3799      3800      3799      3801
      3799      3802      3802      3833      3833      3838      3833      3834
      3834      3835      3834      3836      3834      3837      3802      3803
      3803      3804      3803      3805      3805      3806      3805      3807
      3805      3808      3808      3809      3808      3831      3831      3832
      3831      3833      3808      3810      3810      3811      3810      3820
      3820      3825      3825      3826      3825      3827      3825      3828
      3828      3829      3828      3830      3828      3831      3820      3821
      3821      3822      3821      3823      3821      3824      3810      3812
      3812      3813      3812      3814      3812      3815      3815      3816
      3815      3817      3815      3818      3818      3819      3818      3820
      3818      3844      3844      3845      3844      3846      3846      3847
      3846      3848      3846      3849      3844      3850      3850      3851
      3850      3852      3850      3853      3853      3854      3853      3855
      3853      3856      3856      3857      3856      3858      3856      3859
      3859      3860      3859      3861      3861      3862      3861      3863
      3861      3864      3859      3865      3865      3866      3865      3867
      3865      3868      3869      3871      3869      3870      3871      3872
      3869      3915      3915      3916      3915      3917      3915      3912
      3912      3913      3912      3914      3869      3873      3873      3874
      3873      3875      3873      3876      3876      3907      3907      3912
      3907      3908      3908      3909      3908      3910      3908      3911
      3876      3877      3877      3878      3877      3879      3879      3880
      3879      3881      3879      3882      3882      3883      3882      3905
      3905      3906      3905      3907      3882      3884      3884      3885
      3884      3894      3894      3899      3899      3900      3899      3901
      3899      3902      3902      3903      3902      3904      3902      3905
      3894      3895      3895      3896      3895      3897      3895      3898
      3884      3886      3886      3887      3886      3888      3886      3889
      3889      3890      3889      3891      3889      3892      3892      3893
      3892      3894      3892      3918      3918      3919      3918      3920
      3920      3921      3920      3922      3920      3923      3918      3924
      3924      3925      3924      3926      3924      3927      3927      3928
      3927      3929      3927      3930      3930      3931      3930      3932
      3930      3933      3933      3934      3933      3935      3935      3936
      3935      3937      3935      3938      3933      3939      3939      3940
      3939      3941      3939      3942      3943      3944      3943      3945
      3943      3946      3943      3947      3951      3949      3949      3947
      3949      3950      3947      3948      3947      3952      3960      3959
      3952      3953      3952      3954      3952      3958      3958      3955
      3955      3959      3955      3956      3955      3957      3960      3961
      3960      3962      3960      3963      3963      3964      3963      3971
      3963      3965      3971      3972      3971      3973      3971      3974
      3965      3966      3966      3968      3966      3967      3968      3969
      3968      3970      3968      3980      3980      3981      3980      3982
      3980      3983      3983      3984      3983      3985      3983      3986
      3986      3987      3986      3988      3988      3989      3988      3990
      3990      3991      3990      3992      3990      3993      3993      3994
      3993      3995      3995      3996      3995      3997      3997      3998
      3997      3999      3997      4000      4000      4001      4000      4002
      4002      4003      4002      4004      4004      4005      4004      4006
      4004      4007      4007      4008      4007      4009      4009      4010
      4009      4011      4011      4012      4011      4013      4011      4014
      4014      4015      4014      4016      4014      4017      4017      4018
      4017      4019      4017      4020      4020      4021      4020      4022
      4020      4023      4023      4024      4023      4025      4023      4026
      3974      3975      3975      3977      3975      3976      3977      3978
      3977      3979      3977      4027      4027      4028      4027      4029
      4027      4030      4030      4031      4030      4032      4030      4033
      4033      4034      4033      4035      4033      4036      4036      4037
      4036      4038      4036      4039      4039      4040      4039      4041
      4039      4042      4042      4043      4042      4044      4042      4045
      4045      4046      4045      4047      4045      4048      4048      4049
      4048      4050      4048      4051      4051      4052      4051      4053
      4051      4054      4054      4055      4054      4056      4054      4057
      4057      4058      4057      4059      4057      4060      4060      4061
      4060      4062      4060      4063      4063      4064      4063      4065
      4063      4066      4066      4067      4066      4068      4066      4069
      4069      4070      4069      4071      4069      4072      4072      4073
      4072      4074      4072      4075      4076      4077      4076      4078
      4076      4079      4076      4080      4080      4081      4080      4082
      4080      4083      4083      4084      4083      4085      4083      4089
      4091      4090      4089      4086      4086      4090      4086      4087
      4086      4088      4091      4092      4091      4093      4091      4094
      4094      4095      4094      4102      4094      4096      4102      4103
      4102      4104      4102      4105      4096      4097      4097      4099
      4097      4098      4099      4100      4099      4101      4099      4111
      4111      4112      4111      4113      4111      4114      4114      4115
      4114      4116      4114      4117      4117      4118      4117      4119
      4119      4120      4119      4121      4121      4122      4121      4123
      4121      4124      4124      4125      4124      4126      4126      4127
      4126      4128      4128      4129      4128      4130      4128      4131
      4131      4132      4131      4133      4133      4134      4133      4135
      4135      4136      4135      4137      4135      4138      4138      4139
      4138      4140      4140      4141      4140      4142      4142      4143
      4142      4144      4142      4145      4145      4146      4145      4147
      4145      4148      4148      4149      4148      4150      4148      4151
      4151      4152      4151      4153      4151      4154      4154      4155
      4154      4156      4154      4157      4105      4106      4106      4108
      4106      4107      4108      4109      4108      4110      4108      4158
      4158      4159      4158      4160      4158      4161      4161      4162
      4161      4163      4161      4164      4164      4165      4164      4166
      4164      4167      4167      4168      4167      4169      4167      4170
      4170      4171      4170      4172      4170      4173      4173      4174
      4173      4175      4173      4176      4176      4177      4176      4178
      4176      4179      4179      4180      4179      4181      4179      4182
      4182      4183      4182      4184      4182      4185      4185      4186
      4185      4187      4185      4188      4188      4189      4188      4190
      4188      4191      4191      4192      4191      4193      4191      4194
      4194      4195      4194      4196      4194      4197      4197      4198
      4197      4199      4197      4200      4200      4201      4200      4202
      4200      4203      4203      4204      4203      4205      4203      4206
      4207      4211      4207      4215      4207      4219      4211      4212
      4211      4213      4211      4214      4215      4216      4215      4217
      4215      4218      4219      4220      4219      4221      4219      4222
      4207      4208      4208      4209      4208      4210      4208      4223
      4223      4224      4223      4225      4223      4229      4230      4231
      4229      4226      4226      4230      4226      4227      4226      4228
      4231      4232      4231      4233      4231      4234      4234      4235
      4234      4242      4234      4236      4242      4243      4242      4244
      4242      4245      4236      4237      4237      4239      4237      4238
      4239      4240      4239      4241      4239      4251      4251      4252
      4251      4253      4251      4254      4254      4255      4254      4256
      4254      4257      4257      4258      4257      4259      4257      4260
      4260      4261      4260      4262      4260      4263      4263      4264
      4263      4265      4263      4266      4266      4267      4266      4268
      4266      4269      4269      4270      4269      4271      4271      4272
      4271      4273      4273      4274      4273      4275      4273      4276
      4276      4277      4276      4278      4276      4279      4279      4280
      4279      4281      4279      4282      4282      4283      4282      4284
      4282      4285      4285      4286      4285      4287      4285      4288
      4288      4289      4288      4290      4288      4291      4291      4292
      4291      4293      4291      4294      4294      4295      4294      4296
      4294      4297      4245      4246      4246      4248      4246      4247
      4248      4249      4248      4250      4248      4298      4298      4299
      4298      4300      4298      4301      4301      4302      4301      4303
      4301      4304      4304      4305      4304      4306      4304      4307
      4307      4308      4307      4309      4307      4310      4310      4311
      4310      4312      4310      4313      4313      4314      4313      4315
      4313      4316      4316      4317      4316      4318      4316      4319
      4319      4320      4319      4321      4319      4322      4322      4323
      4322      4324      4322      4325      4325      4326      4325      4327
      4325      4328      4328      4329      4328      4330      4328      4331
      4331      4332      4331      4333      4331      4334      4334      4335
      4334      4336      4334      4337      4337      4338      4337      4339
      4337      4340      4341      4343      4341      4342      4343      4344
      4341      4387      4387      4388      4387      4389      4387      4384
      4384      4385      4384      4386      4341      4345      4345      4346
      4345      4347      4345      4348      4348      4379      4379      4384
      4379      4380      4380      4381      4380      4382      4380      4383
      4348      4349      4349      4350      4349      4351      4351      4352
      4351      4353      4351      4354      4354      4355      4354      4377
      4377      4378      4377      4379      4354      4356      4356      4357
      4356      4366      4366      4371      4371      4372      4371      4373
      4371      4374      4374      4375      4374      4376      4374      4377
      4366      4367      4367      4368      4367      4369      4367      4370
      4356      4358      4358      4359      4358      4360      4358      4361
      4361      4362      4361      4363      4361      4364      4364      4365
      4364      4366      4364      4390      4390      4391      4390      4392
      4392      4393      4392      4394      4392      4395      4390      4396
      4396      4397      4396      4398      4396      4399      4399      4400
      4399      4401      4399      4402      4402      4403      4402      4404
      4402      4405      4405      4406      4405      4407      4407      4408
      4407      4409      4407      4410      4405      4411      4411      4412
      4411      4413      4411      4414      4490      4491      4490      4492
      4490      4493      4490      4487      4487      4488      4487      4489
      4487      4484      4484      4485      4484      4486      4484      4481
      4481      4482      4481      4483      4481      4478      4478      4479
      4478      4480      4478      4475      4475      4476      4475      4477
      4475      4472      4472      4473      4472      4474      4472      4469
      4469      4470      4469      4471      4469      4466      4466      4467
      4466      4468      4466      4463      4463      4464      4463      4465
      4463      4460      4460      4461      4460      4462      4460      4457
      4457      4458      4457      4459      4457      4454      4454      4455
      4454      4456      4454      4452      4452      4453      4450      4451
      4450      4446      4446      4447      4446      4448      4448      4449
      4446      4444      4444      4445      4444      4439      4439      4440
      4439      4441      4439      4437      4437      4434      4438      4434
      4435      4434      4436      4434      4438      4431      4431      4432
      4431      4433      4431      4428      4428      4429      4428      4430
      4428      4415      4415      4424      4415      4420      4415      4416
      4424      4425      4424      4426      4424      4427      4420      4421
      4420      4422      4420      4423      4416      4417      4416      4418
      4416      4419      4444      4442      4442      4443      4442      4494
      4494      4496      4496      4497      4496      4498      4496      4499
      4499      4500      4499      4501      4499      4502      4502      4503
      4502      4504      4502      4505      4505      4506      4505      4507
      4505      4508      4508      4509      4508      4510      4508      4511
      4511      4512      4511      4513      4511      4514      4514      4515
      4514      4516      4514      4517      4517      4518      4519      4520
      4519      4521      4521      4522      4521      4523      4521      4524
      4524      4525      4524      4526      4524      4527      4527      4528
      4527      4529      4527      4530      4530      4531      4530      4532
      4530      4533      4533      4534      4533      4535      4533      4536
      4536      4537      4536      4538      4536      4539      4539      4540
      4539      4541      4539      4542      4542      4543      4542      4544
      4542      4545      4450      4452      4517      4519      4494      4495
      4621      4622      4621      4623      4621      4624      4621      4618
      4618      4619      4618      4620      4618      4615      4615      4616
      4615      4617      4615      4612      4612      4613      4612      4614
      4612      4609      4609      4610      4609      4611      4609      4606
      4606      4607      4606      4608      4606      4603      4603      4604
      4603      4605      4603      4600      4600      4601      4600      4602
      4600      4597      4597      4598      4597      4599      4597      4594
      4594      4595      4594      4596      4594      4591      4591      4592
      4591      4593      4591      4588      4588      4589      4588      4590
      4588      4585      4585      4586      4585      4587      4585      4583
      4583      4584      4581      4582      4581      4577      4577      4578
      4577      4579      4579      4580      4577      4575      4575      4576
      4575      4570      4570      4571      4570      4572      4570      4568
      4568      4565      4569      4565      4566      4565      4567      4565
      4569      4562      4562      4563      4562      4564      4562      4559
      4559      4560      4559      4561      4559      4546      4546      4555
      4546      4551      4546      4547      4555      4556      4555      4557
      4555      4558      4551      4552      4551      4553      4551      4554
      4547      4548      4547      4549      4547      4550      4575      4573
      4573      4574      4573      4625      4625      4627      4627      4628
      4627      4629      4627      4630      4630      4631      4630      4632
      4630      4633      4633      4634      4633      4635      4633      4636
      4636      4637      4636      4638      4636      4639      4639      4640
      4639      4641      4639      4642      4642      4643      4642      4644
      4642      4645      4645      4646      4645      4647      4645      4648
      4648      4649      4650      4651      4650      4652      4652      4653
      4652      4654      4652      4655      4655      4656      4655      4657
      4655      4658      4658      4659      4658      4660      4658      4661
      4661      4662      4661      4663      4661      4664      4664      4665
      4664      4666      4664      4667      4667      4668      4667      4669
      4667      4670      4670      4671      4670      4672      4670      4673
      4673      4674      4673      4675      4673      4676      4581      4583
      4648      4650      4625      4626      4677      4678      4677      4679
      4677      4680      4677      4681      4685      4683      4683      4681
      4683      4684      4681      4682      4681      4686      4694      4693
      4686      4687      4686      4688      4686      4692      4692      4689
      4689      4693      4689      4690      4689      4691      4694      4695
      4694      4696      4694      4697      4697      4698      4697      4705
      4697      4699      4705      4706      4705      4707      4705      4708
      4699      4700      4700      4702      4700      4701      4702      4703
      4702      4704      4702      4714      4714      4715      4714      4716
      4714      4717      4717      4718      4717      4719      4717      4720
      4720      4721      4720      4722      4722      4723      4722      4724
      4724      4725      4724      4726      4724      4727      4727      4728
      4727      4729      4729      4730      4729      4731      4731      4732
      4731      4733      4731      4734      4734      4735      4734      4736
      4736      4737      4736      4738      4738      4739      4738      4740
      4738      4741      4741      4742      4741      4743      4743      4744
      4743      4745      4745      4746      4745      4747      4745      4748
      4748      4749      4748      4750      4748      4751      4751      4752
      4751      4753      4751      4754      4754      4755      4754      4756
      4754      4757      4757      4758      4757      4759      4757      4760
      4708      4709      4709      4711      4709      4710      4711      4712
      4711      4713      4711      4761      4761      4762      4761      4763
      4761      4764      4764      4765      4764      4766      4764      4767
      4767      4768      4767      4769      4767      4770      4770      4771
      4770      4772      4770      4773      4773      4774      4773      4775
      4773      4776      4776      4777      4776      4778      4776      4779
      4779      4780      4779      4781      4779      4782      4782      4783
      4782      4784      4782      4785      4785      4786      4785      4787
      4785      4788      4788      4789      4788      4790      4788      4791
      4791      4792      4791      4793      4791      4794      4794      4795
      4794      4796      4794      4797      4797      4798      4797      4799
      4797      4800      4800      4801      4800      4802      4800      4803
      4803      4804      4803      4805      4803      4806      4806      4807
      4806      4808      4806      4809      4885      4886      4885      4887
      4885      4888      4885      4882      4882      4883      4882      4884
      4882      4879      4879      4880      4879      4881      4879      4876
      4876      4877      4876      4878      4876      4873      4873      4874
      4873      4875      4873      4870      4870      4871      4870      4872
      4870      4867      4867      4868      4867      4869      4867      4864
      4864      4865      4864      4866      4864      4861      4861      4862
      4861      4863      4861      4858      4858      4859      4858      4860
      4858      4855      4855      4856      4855      4857      4855      4852
      4852      4853      4852      4854      4852      4849      4849      4850
      4849      4851      4849      4847      4847      4848      4845      4846
      4845      4841      4841      4842      4841      4843      4843      4844
      4841      4839      4839      4840      4839      4834      4834      4835
      4834      4836      4834      4832      4832      4829      4833      4829
      4830      4829      4831      4829      4833      4826      4826      4827
      4826      4828      4826      4823      4823      4824      4823      4825
      4823      4810      4810      4819      4810      4815      4810      4811
      4819      4820      4819      4821      4819      4822      4815      4816
      4815      4817      4815      4818      4811      4812      4811      4813
      4811      4814      4839      4837      4837      4838      4837      4889
      4889      4891      4891      4892      4891      4893      4891      4894
      4894      4895      4894      4896      4894      4897      4897      4898
      4897      4899      4897      4900      4900      4901      4900      4902
      4900      4903      4903      4904      4903      4905      4903      4906
      4906      4907      4906      4908      4906      4909      4909      4910
      4909      4911      4909      4912      4912      4913      4914      4915
      4914      4916      4916      4917      4916      4918      4916      4919
      4919      4920      4919      4921      4919      4922      4922      4923
      4922      4924      4922      4925      4925      4926      4925      4927
      4925      4928      4928      4929      4928      4930      4928      4931
      4931      4932      4931      4933      4931      4934      4934      4935
      4934      4936      4934      4937      4937      4938      4937      4939
      4937      4940      4845      4847      4912      4914      4889      4890
      4941      4942      4941      4946      4941      4950      4942      4943
      4942      4944      4942      4945      4946      4947      4946      4948
      4946      4949      4950      4951      4950      4952      4950      4953
      4941      4954      4954      4955      4954      4956      4954      4957
      4957      4958      4957      4959      4957      4963      4964      4965
      4963      4960      4960      4964      4960      4961      4960      4962
      4965      4966      4965      4967      4965      4968      4968      4969
      4968      4976      4968      4970      4976      4977      4976      4978
      4976      4979      4970      4971      4971      4973      4971      4972
      4973      4974      4973      4975      4973      4985      4985      4986
      4985      4987      4985      4988      4988      4989      4988      4990
      4988      4991      4991      4992      4991      4993      4991      4994
      4994      4995      4994      4996      4994      4997      4997      4998
      4997      4999      4997      5000      5000      5001      5000      5002
      5000      5003      5003      5004      5003      5005      5005      5006
      5005      5007      5007      5008      5007      5009      5007      5010
      5010      5011      5010      5012      5012      5013      5012      5014
      5014      5015      5014      5016      5014      5017      5017      5018
      5017      5019      5017      5020      5020      5021      5020      5022
      5020      5023      5023      5024      5023      5025      5023      5026
      5026      5027      5026      5028      5026      5029      4979      4980
      4980      4982      4980      4981      4982      4983      4982      4984
      4982      5030      5030      5031      5030      5032      5030      5033
      5033      5034      5033      5035      5033      5036      5036      5037
      5036      5038      5036      5039      5039      5040      5039      5041
      5039      5042      5042      5043      5042      5044      5042      5045
      5045      5046      5045      5047      5045      5048      5048      5049
      5048      5050      5048      5051      5051      5052      5051      5053
      5051      5054      5054      5055      5054      5056      5054      5057
      5057      5058      5057      5059      5057      5060      5060      5061
      5060      5062      5060      5063      5063      5064      5063      5065
      5063      5066      5066      5067      5066      5068      5066      5069
      5069      5070      5069      5071      5069      5072      5072      5073
      5072      5074      5072      5075      5075      5076      5075      5077
      5075      5078      5154      5155      5154      5156      5154      5157
      5154      5151      5151      5152      5151      5153      5151      5148
      5148      5149      5148      5150      5148      5145      5145      5146
      5145      5147      5145      5142      5142      5143      5142      5144
      5142      5139      5139      5140      5139      5141      5139      5136
      5136      5137      5136      5138      5136      5133      5133      5134
      5133      5135      5133      5130      5130      5131      5130      5132
      5130      5127      5127      5128      5127      5129      5127      5124
      5124      5125      5124      5126      5124      5121      5121      5122
      5121      5123      5121      5118      5118      5119      5118      5120
      5118      5116      5116      5117      5114      5115      5114      5110
      5110      5111      5110      5112      5112      5113      5110      5108
      5108      5109      5108      5103      5103      5104      5103      5105
      5103      5101      5101      5098      5102      5098      5099      5098
      5100      5098      5102      5095      5095      5096      5095      5097
      5095      5092      5092      5093      5092      5094      5092      5079
      5079      5088      5079      5084      5079      5080      5088      5089
      5088      5090      5088      5091      5084      5085      5084      5086
      5084      5087      5080      5081      5080      5082      5080      5083
      5108      5106      5106      5107      5106      5158      5158      5160
      5160      5161      5160      5162      5160      5163      5163      5164
      5163      5165      5163      5166      5166      5167      5166      5168
      5166      5169      5169      5170      5169      5171      5169      5172
      5172      5173      5172      5174      5172      5175      5175      5176
      5175      5177      5175      5178      5178      5179      5178      5180
      5178      5181      5181      5182      5183      5184      5183      5185
      5185      5186      5185      5187      5185      5188      5188      5189
      5188      5190      5188      5191      5191      5192      5191      5193
      5191      5194      5194      5195      5194      5196      5194      5197
      5197      5198      5197      5199      5197      5200      5200      5201
      5200      5202      5200      5203      5203      5204      5203      5205
      5203      5206      5206      5207      5206      5208      5206      5209
      5114      5116      5181      5183      5158      5159      5285      5286
      5285      5287      5285      5288      5285      5282      5282      5283
      5282      5284      5282      5279      5279      5280      5279      5281
      5279      5276      5276      5277      5276      5278      5276      5273
      5273      5274      5273      5275      5273      5270      5270      5271
      5270      5272      5270      5267      5267      5268      5267      5269
      5267      5264      5264      5265      5264      5266      5264      5261
      5261      5262      5261      5263      5261      5258      5258      5259
      5258      5260      5258      5255      5255      5256      5255      5257
      5255      5252      5252      5253      5252      5254      5252      5249
      5249      5250      5249      5251      5249      5247      5247      5248
      5245      5246      5245      5241      5241      5242      5241      5243
      5243      5244      5241      5239      5239      5240      5239      5234
      5234      5235      5234      5236      5234      5232      5232      5229
      5233      5229      5230      5229      5231      5229      5233      5226
      5226      5227      5226      5228      5226      5223      5223      5224
      5223      5225      5223      5210      5210      5219      5210      5215
      5210      5211      5219      5220      5219      5221      5219      5222
      5215      5216      5215      5217      5215      5218      5211      5212
      5211      5213      5211      5214      5239      5237      5237      5238
      5237      5289      5289      5291      5291      5292      5291      5293
      5291      5294      5294      5295      5294      5296      5294      5297
      5297      5298      5297      5299      5297      5300      5300      5301
      5300      5302      5300      5303      5303      5304      5303      5305
      5303      5306      5306      5307      5306      5308      5306      5309
      5309      5310      5309      5311      5309      5312      5312      5313
      5314      5315      5314      5316      5316      5317      5316      5318
      5316      5319      5319      5320      5319      5321      5319      5322
      5322      5323      5322      5324      5322      5325      5325      5326
      5325      5327      5325      5328      5328      5329      5328      5330
      5328      5331      5331      5332      5331      5333      5331      5334
      5334      5335      5334      5336      5334      5337      5337      5338
      5337      5339      5337      5340      5245      5247      5312      5314
      5289      5290      5341      5343      5341      5342      5343      5344
      5341      5387      5387      5388      5387      5389      5387      5384
      5384      5385      5384      5386      5341      5345      5345      5346
      5345      5347      5345      5348      5348      5379      5379      5384
      5379      5380      5380      5381      5380      5382      5380      5383
      5348      5349      5349      5350      5349      5351      5351      5352
      5351      5353      5351      5354      5354      5355      5354      5377
      5377      5378      5377      5379      5354      5356      5356      5357
      5356      5366      5366      5371      5371      5372      5371      5373
      5371      5374      5374      5375      5374      5376      5374      5377
      5366      5367      5367      5368      5367      5369      5367      5370
      5356      5358      5358      5359      5358      5360      5358      5361
      5361      5362      5361      5363      5361      5364      5364      5365
      5364      5366      5364      5390      5390      5391      5390      5392
      5392      5393      5392      5394      5392      5395      5390      5396
      5396      5397      5396      5398      5396      5399      5399      5400
      5399      5401      5399      5402      5402      5403      5402      5404
      5402      5405      5405      5406      5405      5407      5407      5408
      5407      5409      5407      5410      5405      5411      5411      5412
      5411      5413      5411      5414      5415      5416      5415      5417
      5415      5418      5415      5419      5419      5420      5419      5421
      5419      5422      5422      5423      5422      5424      5422      5428
      5430      5429      5428      5425      5425      5429      5425      5426
      5425      5427      5430      5431      5430      5432      5430      5433
      5433      5434      5433      5441      5433      5435      5441      5442
      5441      5443      5441      5444      5435      5436      5436      5438
      5436      5437      5438      5439      5438      5440      5438      5450
      5450      5451      5450      5452      5450      5453      5453      5454
      5453      5455      5453      5456      5456      5457      5456      5458
      5456      5459      5459      5460      5459      5461      5459      5462
      5462      5463      5462      5464      5462      5465      5465      5466
      5465      5467      5465      5468      5468      5469      5468      5470
      5470      5471      5470      5472      5472      5473      5472      5474
      5472      5475      5475      5476      5475      5477      5475      5478
      5478      5479      5478      5480      5478      5481      5481      5482
      5481      5483      5481      5484      5484      5485      5484      5486
      5484      5487      5487      5488      5487      5489      5487      5490
      5490      5491      5490      5492      5490      5493      5493      5494
      5493      5495      5493      5496      5444      5445      5445      5447
      5445      5446      5447      5448      5447      5449      5447      5497
      5497      5498      5497      5499      5497      5500      5500      5501
      5500      5502      5500      5503      5503      5504      5503      5505
      5503      5506      5506      5507      5506      5508      5506      5509
      5509      5510      5509      5511      5509      5512      5512      5513
      5512      5514      5512      5515      5515      5516      5515      5517
      5515      5518      5518      5519      5518      5520      5518      5521
      5521      5522      5521      5523      5521      5524      5524      5525
      5524      5526      5524      5527      5527      5528      5527      5529
      5527      5530      5530      5531      5530      5532      5530      5533
      5533      5534      5533      5535      5533      5536      5536      5537
      5536      5538      5536      5539      5539      5540      5539      5541
      5539      5542      5542      5543      5542      5544      5542      5545
      5546      5548      5546      5547      5548      5549      5546      5592
      5592      5593      5592      5594      5592      5589      5589      5590
      5589      5591      5546      5550      5550      5551      5550      5552
      5550      5553      5553      5584      5584      5589      5584      5585
      5585      5586      5585      5587      5585      5588      5553      5554
      5554      5555      5554      5556      5556      5557      5556      5558
      5556      5559      5559      5560      5559      5582      5582      5583
      5582      5584      5559      5561      5561      5562      5561      5571
      5571      5576      5576      5577      5576      5578      5576      5579
      5579      5580      5579      5581      5579      5582      5571      5572
      5572      5573      5572      5574      5572      5575      5561      5563
      5563      5564      5563      5565      5563      5566      5566      5567
      5566      5568      5566      5569      5569      5570      5569      5571
      5569      5595      5595      5596      5595      5597      5597      5598
      5597      5599      5597      5600      5595      5601      5601      5602
      5601      5603      5601      5604      5604      5605      5604      5606
      5604      5607      5607      5608      5607      5609      5607      5610
      5610      5611      5610      5612      5612      5613      5612      5614
      5612      5615      5610      5616      5616      5617      5616      5618
      5616      5619      5620      5621      5620      5622      5620      5623
      5620      5624      5624      5625      5624      5626      5624      5627
      5627      5628      5627      5629      5627      5633      5635      5634
      5633      5630      5630      5634      5630      5631      5630      5632
      5635      5636      5635      5637      5635      5638      5638      5639
      5638      5646      5638      5640      5646      5647      5646      5648
      5646      5649      5640      5641      5641      5643      5641      5642
      5643      5644      5643      5645      5643      5655      5655      5656
      5655      5657      5655      5658      5658      5659      5658      5660
      5658      5661      5661      5662      5661      5663      5663      5664
      5663      5665      5665      5666      5665      5667      5665      5668
      5668      5669      5668      5670      5670      5671      5670      5672
      5672      5673      5672      5674      5672      5675      5675      5676
      5675      5677      5677      5678      5677      5679      5679      5680
      5679      5681      5679      5682      5682      5683      5682      5684
      5684      5685      5684      5686      5686      5687      5686      5688
      5686      5689      5689      5690      5689      5691      5689      5692
      5692      5693      5692      5694      5692      5695      5695      5696
      5695      5697      5695      5698      5698      5699      5698      5700
      5698      5701      5649      5650      5650      5652      5650      5651
      5652      5653      5652      5654      5652      5702      5702      5703
      5702      5704      5702      5705      5705      5706      5705      5707
      5705      5708      5708      5709      5708      5710      5708      5711
      5711      5712      5711      5713      5711      5714      5714      5715
      5714      5716      5714      5717      5717      5718      5717      5719
      5717      5720      5720      5721      5720      5722      5720      5723
      5723      5724      5723      5725      5723      5726      5726      5727
      5726      5728      5726      5729      5729      5730      5729      5731
      5729      5732      5732      5733      5732      5734      5732      5735
      5735      5736      5735      5737      5735      5738      5738      5739
      5738      5740      5738      5741      5741      5742      5741      5743
      5741      5744      5744      5745      5744      5746      5744      5747
      5747      5748      5747      5749      5747      5750      5751      5753
      5751      5752      5753      5754      5751      5797      5797      5798
      5797      5799      5797      5794      5794      5795      5794      5796
      5751      5755      5755      5756      5755      5757      5755      5758
      5758      5789      5789      5794      5789      5790      5790      5791
      5790      5792      5790      5793      5758      5759      5759      5760
      5759      5761      5761      5762      5761      5763      5761      5764
      5764      5765      5764      5787      5787      5788      5787      5789
      5764      5766      5766      5767      5766      5776      5776      5781
      5781      5782      5781      5783      5781      5784      5784      5785
      5784      5786      5784      5787      5776      5777      5777      5778
      5777      5779      5777      5780      5766      5768      5768      5769
      5768      5770      5768      5771      5771      5772      5771      5773
      5771      5774      5774      5775      5774      5776      5774      5800
      5800      5801      5800      5802      5802      5803      5802      5804
      5802      5805      5800      5806      5806      5807      5806      5808
      5806      5809      5809      5810      5809      5811      5809      5812
      5812      5813      5812      5814      5812      5815      5815      5816
      5815      5817      5817      5818      5817      5819      5817      5820
      5815      5821      5821      5822      5821      5823      5821      5824
      5900      5901      5900      5902      5900      5903      5900      5897
      5897      5898      5897      5899      5897      5894      5894      5895
      5894      5896      5894      5891      5891      5892      5891      5893
      5891      5888      5888      5889      5888      5890      5888      5885
      5885      5886      5885      5887      5885      5882      5882      5883
      5882      5884      5882      5879      5879      5880      5879      5881
      5879      5876      5876      5877      5876      5878      5876      5873
      5873      5874      5873      5875      5873      5870      5870      5871
      5870      5872      5870      5867      5867      5868      5867      5869
      5867      5864      5864      5865      5864      5866      5864      5862
      5862      5863      5860      5861      5860      5856      5856      5857
      5856      5858      5858      5859      5856      5854      5854      5855
      5854      5849      5849      5850      5849      5851      5849      5847
      5847      5844      5848      5844      5845      5844      5846      5844
      5848      5841      5841      5842      5841      5843      5841      5838
      5838      5839      5838      5840      5838      5825      5825      5834
      5825      5830      5825      5826      5834      5835      5834      5836
      5834      5837      5830      5831      5830      5832      5830      5833
      5826      5827      5826      5828      5826      5829      5854      5852
      5852      5853      5852      5904      5904      5906      5906      5907
      5906      5908      5906      5909      5909      5910      5909      5911
      5909      5912      5912      5913      5912      5914      5912      5915
      5915      5916      5915      5917      5915      5918      5918      5919
      5918      5920      5918      5921      5921      5922      5921      5923
      5921      5924      5924      5925      5924      5926      5924      5927
      5927      5928      5929      5930      5929      5931      5931      5932
      5931      5933      5931      5934      5934      5935      5934      5936
      5934      5937      5937      5938      5937      5939      5937      5940
      5940      5941      5940      5942      5940      5943      5943      5944
      5943      5945      5943      5946      5946      5947      5946      5948
      5946      5949      5949      5950      5949      5951      5949      5952
      5952      5953      5952      5954      5952      5955      5860      5862
      5927      5929      5904      5905      6031      6032      6031      6033
      6031      6034      6031      6028      6028      6029      6028      6030
      6028      6025      6025      6026      6025      6027      6025      6022
      6022      6023      6022      6024      6022      6019      6019      6020
      6019      6021      6019      6016      6016      6017      6016      6018
      6016      6013      6013      6014      6013      6015      6013      6010
      6010      6011      6010      6012      6010      6007      6007      6008
      6007      6009      6007      6004      6004      6005      6004      6006
      6004      6001      6001      6002      6001      6003      6001      5998
      5998      5999      5998      6000      5998      5995      5995      5996
      5995      5997      5995      5993      5993      5994      5991      5992
      5991      5987      5987      5988      5987      5989      5989      5990
      5987      5985      5985      5986      5985      5980      5980      5981
      5980      5982      5980      5978      5978      5975      5979      5975
      5976      5975      5977      5975      5979      5972      5972      5973
      5972      5974      5972      5969      5969      5970      5969      5971
      5969      5956      5956      5965      5956      5961      5956      5957
      5965      5966      5965      5967      5965      5968      5961      5962
      5961      5963      5961      5964      5957      5958      5957      5959
      5957      5960      5985      5983      5983      5984      5983      6035
      6035      6037      6037      6038      6037      6039      6037      6040
      6040      6041      6040      6042      6040      6043      6043      6044
      6043      6045      6043      6046      6046      6047      6046      6048
      6046      6049      6049      6050      6049      6051      6049      6052
      6052      6053      6052      6054      6052      6055      6055      6056
      6055      6057      6055      6058      6058      6059      6060      6061
      6060      6062      6062      6063      6062      6064      6062      6065
      6065      6066      6065      6067      6065      6068      6068      6069
      6068      6070      6068      6071      6071      6072      6071      6073
      6071      6074      6074      6075      6074      6076      6074      6077
      6077      6078      6077      6079      6077      6080      6080      6081
      6080      6082      6080      6083      6083      6084      6083      6085
      6083      6086      5991      5993      6058      6060      6035      6036
      6162      6163      6162      6164      6162      6165      6162      6159
      6159      6160      6159      6161      6159      6156      6156      6157
      6156      6158      6156      6153      6153      6154      6153      6155
      6153      6150      6150      6151      6150      6152      6150      6147
      6147      6148      6147      6149      6147      6144      6144      6145
      6144      6146      6144      6141      6141      6142      6141      6143
      6141      6138      6138      6139      6138      6140      6138      6135
      6135      6136      6135      6137      6135      6132      6132      6133
      6132      6134      6132      6129      6129      6130      6129      6131
      6129      6126      6126      6127      6126      6128      6126      6124
      6124      6125      6122      6123      6122      6118      6118      6119
      6118      6120      6120      6121      6118      6116      6116      6117
      6116      6111      6111      6112      6111      6113      6111      6109
      6109      6106      6110      6106      6107      6106      6108      6106
      6110      6103      6103      6104      6103      6105      6103      6100
      6100      6101      6100      6102      6100      6087      6087      6096
      6087      6092      6087      6088      6096      6097      6096      6098
      6096      6099      6092      6093      6092      6094      6092      6095
      6088      6089      6088      6090      6088      6091      6116      6114
      6114      6115      6114      6166      6166      6168      6168      6169
      6168      6170      6168      6171      6171      6172      6171      6173
      6171      6174      6174      6175      6174      6176      6174      6177
      6177      6178      6177      6179      6177      6180      6180      6181
      6180      6182      6180      6183      6183      6184      6183      6185
      6183      6186      6186      6187      6186      6188      6186      6189
      6189      6190      6191      6192      6191      6193      6193      6194
      6193      6195      6193      6196      6196      6197      6196      6198
      6196      6199      6199      6200      6199      6201      6199      6202
      6202      6203      6202      6204      6202      6205      6205      6206
      6205      6207      6205      6208      6208      6209      6208      6210
      6208      6211      6211      6212      6211      6213      6211      6214
      6214      6215      6214      6216      6214      6217      6122      6124
      6189      6191      6166      6167      6293      6294      6293      6295
      6293      6296      6293      6290      6290      6291      6290      6292
      6290      6287      6287      6288      6287      6289      6287      6284
      6284      6285      6284      6286      6284      6281      6281      6282
      6281      6283      6281      6278      6278      6279      6278      6280
      6278      6275      6275      6276      6275      6277      6275      6272
      6272      6273      6272      6274      6272      6269      6269      6270
      6269      6271      6269      6266      6266      6267      6266      6268
      6266      6263      6263      6264      6263      6265      6263      6260
      6260      6261      6260      6262      6260      6257      6257      6258
      6257      6259      6257      6255      6255      6256      6253      6254
      6253      6249      6249      6250      6249      6251      6251      6252
      6249      6247      6247      6248      6247      6242      6242      6243
      6242      6244      6242      6240      6240      6237      6241      6237
      6238      6237      6239      6237      6241      6234      6234      6235
      6234      6236      6234      6231      6231      6232      6231      6233
      6231      6218      6218      6227      6218      6223      6218      6219
      6227      6228      6227      6229      6227      6230      6223      6224
      6223      6225      6223      6226      6219      6220      6219      6221
      6219      6222      6247      6245      6245      6246      6245      6297
      6297      6299      6299      6300      6299      6301      6299      6302
      6302      6303      6302      6304      6302      6305      6305      6306
      6305      6307      6305      6308      6308      6309      6308      6310
      6308      6311      6311      6312      6311      6313      6311      6314
      6314      6315      6314      6316      6314      6317      6317      6318
      6317      6319      6317      6320      6320      6321      6322      6323
      6322      6324      6324      6325      6324      6326      6324      6327
      6327      6328      6327      6329      6327      6330      6330      6331
      6330      6332      6330      6333      6333      6334      6333      6335
      6333      6336      6336      6337      6336      6338      6336      6339
      6339      6340      6339      6341      6339      6342      6342      6343
      6342      6344      6342      6345      6345      6346      6345      6347
      6345      6348      6253      6255      6320      6322      6297      6298
      6349      6350      6349      6354      6349      6358      6350      6351
      6350      6352      6350      6353      6354      6355      6354      6356
      6354      6357      6358      6359      6358      6360      6358      6361
      6349      6362      6362      6363      6362      6364      6362      6365
      6365      6366      6365      6367      6365      6371      6372      6373
      6371      6368      6368      6372      6368      6369      6368      6370
      6373      6374      6373      6375      6373      6376      6376      6377
      6376      6384      6376      6378      6384      6385      6384      6386
      6384      6387      6378      6379      6379      6381      6379      6380
      6381      6382      6381      6383      6381      6393      6393      6394
      6393      6395      6393      6396      6396      6397      6396      6398
      6396      6399      6399      6400      6399      6401      6399      6402
      6402      6403      6402      6404      6402      6405      6405      6406
      6405      6407      6405      6408      6408      6409      6408      6410
      6408      6411      6411      6412      6411      6413      6413      6414
      6413      6415      6415      6416      6415      6417      6415      6418
      6418      6419      6418      6420      6420      6421      6420      6422
      6422      6423      6422      6424      6422      6425      6425      6426
      6425      6427      6425      6428      6428      6429      6428      6430
      6428      6431      6431      6432      6431      6433      6431      6434
      6434      6435      6434      6436      6434      6437      6387      6388
      6388      6390      6388      6389      6390      6391      6390      6392
      6390      6438      6438      6439      6438      6440      6438      6441
      6441      6442      6441      6443      6441      6444      6444      6445
      6444      6446      6444      6447      6447      6448      6447      6449
      6447      6450      6450      6451      6450      6452      6450      6453
      6453      6454      6453      6455      6453      6456      6456      6457
      6456      6458      6456      6459      6459      6460      6459      6461
      6459      6462      6462      6463      6462      6464      6462      6465
      6465      6466      6465      6467      6465      6468      6468      6469
      6468      6470      6468      6471      6471      6472      6471      6473
      6471      6474      6474      6475      6474      6476      6474      6477
      6477      6478      6477      6479      6477      6480      6480      6481
      6480      6482      6480      6483      6483      6484      6483      6485
      6483      6486      6487      6488      6487      6492      6487      6496
      6488      6489      6488      6490      6488      6491      6492      6493
      6492      6494      6492      6495      6496      6497      6496      6498
      6496      6499      6487      6500      6500      6501      6500      6502
      6500      6503      6503      6504      6503      6505      6503      6509
      6510      6511      6509      6506      6506      6510      6506      6507
      6506      6508      6511      6512      6511      6513      6511      6514
      6514      6515      6514      6522      6514      6516      6522      6523
      6522      6524      6522      6525      6516      6517      6517      6519
      6517      6518      6519      6520      6519      6521      6519      6531
      6531      6532      6531      6533      6531      6534      6534      6535
      6534      6536      6534      6537      6537      6538      6537      6539
      6537      6540      6540      6541      6540      6542      6540      6543
      6543      6544      6543      6545      6543      6546      6546      6547
      6546      6548      6546      6549      6549      6550      6549      6551
      6551      6552      6551      6553      6553      6554      6553      6555
      6553      6556      6556      6557      6556      6558      6558      6559
      6558      6560      6560      6561      6560      6562      6560      6563
      6563      6564      6563      6565      6563      6566      6566      6567
      6566      6568      6566      6569      6569      6570      6569      6571
      6569      6572      6572      6573      6572      6574      6572      6575
      6525      6526      6526      6528      6526      6527      6528      6529
      6528      6530      6528      6576      6576      6577      6576      6578
      6576      6579      6579      6580      6579      6581      6579      6582
      6582      6583      6582      6584      6582      6585      6585      6586
      6585      6587      6585      6588      6588      6589      6588      6590
      6588      6591      6591      6592      6591      6593      6591      6594
      6594      6595      6594      6596      6594      6597      6597      6598
      6597      6599      6597      6600      6600      6601      6600      6602
      6600      6603      6603      6604      6603      6605      6603      6606
      6606      6607      6606      6608      6606      6609      6609      6610
      6609      6611      6609      6612      6612      6613      6612      6614
      6612      6615      6615      6616      6615      6617      6615      6618
      6618      6619      6618      6620      6618      6621      6621      6622
      6621      6623      6621      6624      6625      6627      6625      6626
      6627      6628      6625      6671      6671      6672      6671      6673
      6671      6668      6668      6669      6668      6670      6625      6629
      6629      6630      6629      6631      6629      6632      6632      6663
      6663      6668      6663      6664      6664      6665      6664      6666
      6664      6667      6632      6633      6633      6634      6633      6635
      6635      6636      6635      6637      6635      6638      6638      6639
      6638      6661      6661      6662      6661      6663      6638      6640
      6640      6641      6640      6650      6650      6655      6655      6656
      6655      6657      6655      6658      6658      6659      6658      6660
      6658      6661      6650      6651      6651      6652      6651      6653
      6651      6654      6640      6642      6642      6643      6642      6644
      6642      6645      6645      6646      6645      6647      6645      6648
      6648      6649      6648      6650      6648      6674      6674      6675
      6674      6676      6676      6677      6676      6678      6676      6679
      6674      6680      6680      6681      6680      6682      6680      6683
      6683      6684      6683      6685      6683      6686      6686      6687
      6686      6688      6686      6689      6689      6690      6689      6691
      6691      6692      6691      6693      6691      6694      6689      6695
      6695      6696      6695      6697      6695      6698      6699      6701
      6699      6700      6701      6702      6699      6745      6745      6746
      6745      6747      6745      6742      6742      6743      6742      6744
      6699      6703      6703      6704      6703      6705      6703      6706
      6706      6737      6737      6742      6737      6738      6738      6739
      6738      6740      6738      6741      6706      6707      6707      6708
      6707      6709      6709      6710      6709      6711      6709      6712
      6712      6713      6712      6735      6735      6736      6735      6737
      6712      6714      6714      6715      6714      6724      6724      6729
      6729      6730      6729      6731      6729      6732      6732      6733
      6732      6734      6732      6735      6724      6725      6725      6726
      6725      6727      6725      6728      6714      6716      6716      6717
      6716      6718      6716      6719      6719      6720      6719      6721
      6719      6722      6722      6723      6722      6724      6722      6748
      6748      6749      6748      6750      6750      6751      6750      6752
      6750      6753      6748      6754      6754      6755      6754      6756
      6754      6757      6757      6758      6757      6759      6757      6760
      6760      6761      6760      6762      6760      6763      6763      6764
      6763      6765      6765      6766      6765      6767      6765      6768
      6763      6769      6769      6770      6769      6771      6769      6772
      6773      6775      6773      6774      6775      6776      6773      6819
      6819      6820      6819      6821      6819      6816      6816      6817
      6816      6818      6773      6777      6777      6778      6777      6779
      6777      6780      6780      6811      6811      6816      6811      6812
      6812      6813      6812      6814      6812      6815      6780      6781
      6781      6782      6781      6783      6783      6784      6783      6785
      6783      6786      6786      6787      6786      6809      6809      6810
      6809      6811      6786      6788      6788      6789      6788      6798
      6798      6803      6803      6804      6803      6805      6803      6806
      6806      6807      6806      6808      6806      6809      6798      6799
      6799      6800      6799      6801      6799      6802      6788      6790
      6790      6791      6790      6792      6790      6793      6793      6794
      6793      6795      6793      6796      6796      6797      6796      6798
      6796      6822      6822      6823      6822      6824      6824      6825
      6824      6826      6824      6827      6822      6828      6828      6829
      6828      6830      6828      6831      6831      6832      6831      6833
      6831      6834      6834      6835      6834      6836      6834      6837
      6837      6838      6837      6839      6839      6840      6839      6841
      6839      6842      6837      6843      6843      6844      6843      6845
      6843      6846      6847      6849      6847      6848      6849      6850
      6847      6893      6893      6894      6893      6895      6893      6890
      6890      6891      6890      6892      6847      6851      6851      6852
      6851      6853      6851      6854      6854      6885      6885      6890
      6885      6886      6886      6887      6886      6888      6886      6889
      6854      6855      6855      6856      6855      6857      6857      6858
      6857      6859      6857      6860      6860      6861      6860      6883
      6883      6884      6883      6885      6860      6862      6862      6863
      6862      6872      6872      6877      6877      6878      6877      6879
      6877      6880      6880      6881      6880      6882      6880      6883
      6872      6873      6873      6874      6873      6875      6873      6876
      6862      6864      6864      6865      6864      6866      6864      6867
      6867      6868      6867      6869      6867      6870      6870      6871
      6870      6872      6870      6896      6896      6897      6896      6898
      6898      6899      6898      6900      6898      6901      6896      6902
      6902      6903      6902      6904      6902      6905      6905      6906
      6905      6907      6905      6908      6908      6909      6908      6910
      6908      6911      6911      6912      6911      6913      6913      6914
      6913      6915      6913      6916      6911      6917      6917      6918
      6917      6919      6917      6920      6941      6942      6941      6937
      6941      6921      6941      6946      6921      6922      6921      6923
      6923      6924      6921      6925      6925      6926      6925      6927
      6927      6928      6925      6929      6929      6930      6929      6931
      6931      6932      6929      6933      6933      6934      6933      6937
      6937      6938      6937      6939      6939      6940      6933      6935
      6935      6936      6946      6943      6943      6947      6943      6944
      6943      6945      6947      6948      6948      6949      6948      6950
      6948      6951      6951      6952      6951      6959      6951      6953
      6959      6960      6959      6961      6959      6962      6953      6954
      6954      6956      6954      6955      6956      6957      6956      6958
      6956      6968      6968      6969      6968      6970      6968      6971
      6971      6972      6971      6973      6971      6974      6974      6975
      6974      6976      6976      6977      6976      6978      6978      6979
      6978      6980      6978      6981      6981      6982      6981      6983
      6983      6984      6983      6985      6985      6986      6985      6987
      6985      6988      6988      6989      6988      6990      6990      6991
      6990      6992      6992      6993      6992      6994      6992      6995
      6995      6996      6995      6997      6997      6998      6997      6999
      6999      7000      6999      7001      6999      7002      7002      7003
      7002      7004      7002      7005      7005      7006      7005      7007
      7005      7008      7008      7009      7008      7010      7008      7011
      7011      7012      7011      7013      7011      7014      6962      6963
      6963      6965      6963      6964      6965      6966      6965      6967
      6965      7015      7015      7016      7015      7017      7015      7018
      7018      7019      7018      7020      7018      7021      7021      7022
      7021      7023      7021      7024      7024      7025      7024      7026
      7024      7027      7027      7028      7027      7029      7027      7030
      7030      7031      7030      7032      7030      7033      7033      7034
      7033      7035      7033      7036      7036      7037      7036      7038
      7036      7039      7039      7040      7039      7041      7039      7042
      7042      7043      7042      7044      7042      7045      7045      7046
      7045      7047      7045      7048      7048      7049      7048      7050
      7048      7051      7051      7052      7051      7053      7051      7054
      7054      7055      7054      7056      7054      7057      7057      7058
      7057      7059      7057      7060      7060      7061      7060      7062
      7060      7063      7064      7066      7064      7065      7066      7067
      7064      7110      7110      7111      7110      7112      7110      7107
      7107      7108      7107      7109      7064      7068      7068      7069
      7068      7070      7068      7071      7071      7102      7102      7107
      7102      7103      7103      7104      7103      7105      7103      7106
      7071      7072      7072      7073      7072      7074      7074      7075
      7074      7076      7074      7077      7077      7078      7077      7100
      7100      7101      7100      7102      7077      7079      7079      7080
      7079      7089      7089      7094      7094      7095      7094      7096
      7094      7097      7097      7098      7097      7099      7097      7100
      7089      7090      7090      7091      7090      7092      7090      7093
      7079      7081      7081      7082      7081      7083      7081      7084
      7084      7085      7084      7086      7084      7087      7087      7088
      7087      7089      7087      7113      7113      7114      7113      7115
      7115      7116      7115      7117      7115      7118      7113      7119
      7119      7120      7119      7121      7119      7122      7122      7123
      7122      7124      7122      7125      7125      7126      7125      7127
      7125      7128      7128      7129      7128      7130      7130      7131
      7130      7132      7130      7133      7128      7134      7134      7135
      7134      7136      7134      7137      7213      7214      7213      7215
      7213      7216      7213      7210      7210      7211      7210      7212
      7210      7207      7207      7208      7207      7209      7207      7204
      7204      7205      7204      7206      7204      7201      7201      7202
      7201      7203      7201      7198      7198      7199      7198      7200
      7198      7195      7195      7196      7195      7197      7195      7192
      7192      7193      7192      7194      7192      7189      7189      7190
      7189      7191      7189      7186      7186      7187      7186      7188
      7186      7183      7183      7184      7183      7185      7183      7180
      7180      7181      7180      7182      7180      7177      7177      7178
      7177      7179      7177      7175      7175      7176      7173      7174
      7173      7169      7169      7170      7169      7171      7171      7172
      7169      7167      7167      7168      7167      7162      7162      7163
      7162      7164      7162      7160      7160      7157      7161      7157
      7158      7157      7159      7157      7161      7154      7154      7155
      7154      7156      7154      7151      7151      7152      7151      7153
      7151      7138      7138      7147      7138      7143      7138      7139
      7147      7148      7147      7149      7147      7150      7143      7144
      7143      7145      7143      7146      7139      7140      7139      7141
      7139      7142      7167      7165      7165      7166      7165      7217
      7217      7219      7219      7220      7219      7221      7219      7222
      7222      7223      7222      7224      7222      7225      7225      7226
      7225      7227      7225      7228      7228      7229      7228      7230
      7228      7231      7231      7232      7231      7233      7231      7234
      7234      7235      7234      7236      7234      7237      7237      7238
      7237      7239      7237      7240      7240      7241      7242      7243
      7242      7244      7244      7245      7244      7246      7244      7247
      7247      7248      7247      7249      7247      7250      7250      7251
      7250      7252      7250      7253      7253      7254      7253      7255
      7253      7256      7256      7257      7256      7258      7256      7259
      7259      7260      7259      7261      7259      7262      7262      7263
      7262      7264      7262      7265      7265      7266      7265      7267
      7265      7268      7173      7175      7240      7242      7217      7218
      7269      7270      7269      7271      7269      7272      7269      7273
      7277      7275      7275      7273      7275      7276      7273      7274
      7273      7278      7286      7285      7278      7279      7278      7280
      7278      7284      7284      7281      7281      7285      7281      7282
      7281      7283      7286      7287      7286      7288      7286      7289
      7289      7290      7289      7297      7289      7291      7297      7298
      7297      7299      7297      7300      7291      7292      7292      7294
      7292      7293      7294      7295      7294      7296      7294      7306
      7306      7307      7306      7308      7306      7309      7309      7310
      7309      7311      7309      7312      7312      7313      7312      7314
      7314      7315      7314      7316      7316      7317      7316      7318
      7316      7319      7319      7320      7319      7321      7321      7322
      7321      7323      7323      7324      7323      7325      7323      7326
      7326      7327      7326      7328      7328      7329      7328      7330
      7330      7331      7330      7332      7330      7333      7333      7334
      7333      7335      7335      7336      7335      7337      7337      7338
      7337      7339      7337      7340      7340      7341      7340      7342
      7340      7343      7343      7344      7343      7345      7343      7346
      7346      7347      7346      7348      7346      7349      7349      7350
      7349      7351      7349      7352      7300      7301      7301      7303
      7301      7302      7303      7304      7303      7305      7303      7353
      7353      7354      7353      7355      7353      7356      7356      7357
      7356      7358      7356      7359      7359      7360      7359      7361
      7359      7362      7362      7363      7362      7364      7362      7365
      7365      7366      7365      7367      7365      7368      7368      7369
      7368      7370      7368      7371      7371      7372      7371      7373
      7371      7374      7374      7375      7374      7376      7374      7377
      7377      7378      7377      7379      7377      7380      7380      7381
      7380      7382      7380      7383      7383      7384      7383      7385
      7383      7386      7386      7387      7386      7388      7386      7389
      7389      7390      7389      7391      7389      7392      7392      7393
      7392      7394      7392      7395      7395      7396      7395      7397
      7395      7398      7398      7399      7398      7400      7398      7401
      7402      7403      7402      7404      7402      7405      7402      7406
      7406      7407      7406      7408      7406      7409      7409      7410
      7409      7411      7409      7415      7417      7416      7415      7412
      7412      7416      7412      7413      7412      7414      7417      7418
      7417      7419      7417      7420      7420      7421      7420      7428
      7420      7422      7428      7429      7428      7430      7428      7431
      7422      7423      7423      7425      7423      7424      7425      7426
      7425      7427      7425      7437      7437      7438      7437      7439
      7437      7440      7440      7441      7440      7442      7440      7443
      7443      7444      7443      7445      7445      7446      7445      7447
      7447      7448      7447      7449      7447      7450      7450      7451
      7450      7452      7452      7453      7452      7454      7454      7455
      7454      7456      7454      7457      7457      7458      7457      7459
      7459      7460      7459      7461      7461      7462      7461      7463
      7461      7464      7464      7465      7464      7466      7466      7467
      7466      7468      7468      7469      7468      7470      7468      7471
      7471      7472      7471      7473      7471      7474      7474      7475
      7474      7476      7474      7477      7477      7478      7477      7479
      7477      7480      7480      7481      7480      7482      7480      7483
      7431      7432      7432      7434      7432      7433      7434      7435
      7434      7436      7434      7484      7484      7485      7484      7486
      7484      7487      7487      7488      7487      7489      7487      7490
      7490      7491      7490      7492      7490      7493      7493      7494
      7493      7495      7493      7496      7496      7497      7496      7498
      7496      7499      7499      7500      7499      7501      7499      7502
      7502      7503      7502      7504      7502      7505      7505      7506
      7505      7507      7505      7508      7508      7509      7508      7510
      7508      7511      7511      7512      7511      7513      7511      7514
      7514      7515      7514      7516      7514      7517      7517      7518
      7517      7519      7517      7520      7520      7521      7520      7522
      7520      7523      7523      7524      7523      7525      7523      7526
      7526      7527      7526      7528      7526      7529      7529      7530
      7529      7531      7529      7532      7533      7537      7533      7541
      7533      7545      7537      7538      7537      7539      7537      7540
      7541      7542      7541      7543      7541      7544      7545      7546
      7545      7547      7545      7548      7533      7534      7534      7535
      7534      7536      7534      7549      7549      7550      7549      7551
      7549      7555      7556      7557      7555      7552      7552      7556
      7552      7553      7552      7554      7557      7558      7557      7559
      7557      7560      7560      7561      7560      7568      7560      7562
      7568      7569      7568      7570      7568      7571      7562      7563
      7563      7565      7563      7564      7565      7566      7565      7567
      7565      7577      7577      7578      7577      7579      7577      7580
      7580      7581      7580      7582      7580      7583      7583      7584
      7583      7585      7583      7586      7586      7587      7586      7588
      7586      7589      7589      7590      7589      7591      7589      7592
      7592      7593      7592      7594      7592      7595      7595      7596
      7595      7597      7597      7598      7597      7599      7599      7600
      7599      7601      7599      7602      7602      7603      7602      7604
      7602      7605      7605      7606      7605      7607      7605      7608
      7608      7609      7608      7610      7608      7611      7611      7612
      7611      7613      7611      7614      7614      7615      7614      7616
      7614      7617      7617      7618      7617      7619      7617      7620
      7620      7621      7620      7622      7620      7623      7571      7572
      7572      7574      7572      7573      7574      7575      7574      7576
      7574      7624      7624      7625      7624      7626      7624      7627
      7627      7628      7627      7629      7627      7630      7630      7631
      7630      7632      7630      7633      7633      7634      7633      7635
      7633      7636      7636      7637      7636      7638      7636      7639
      7639      7640      7639      7641      7639      7642      7642      7643
      7642      7644      7642      7645      7645      7646      7645      7647
      7645      7648      7648      7649      7648      7650      7648      7651
      7651      7652      7651      7653      7651      7654      7654      7655
      7654      7656      7654      7657      7657      7658      7657      7659
      7657      7660      7660      7661      7660      7662      7660      7663
      7663      7664      7663      7665      7663      7666      7742      7743
      7742      7744      7742      7745      7742      7739      7739      7740
      7739      7741      7739      7736      7736      7737      7736      7738
      7736      7733      7733      7734      7733      7735      7733      7730
      7730      7731      7730      7732      7730      7727      7727      7728
      7727      7729      7727      7724      7724      7725      7724      7726
      7724      7721      7721      7722      7721      7723      7721      7718
      7718      7719      7718      7720      7718      7715      7715      7716
      7715      7717      7715      7712      7712      7713      7712      7714
      7712      7709      7709      7710      7709      7711      7709      7706
      7706      7707      7706      7708      7706      7704      7704      7705
      7702      7703      7702      7698      7698      7699      7698      7700
      7700      7701      7698      7696      7696      7697      7696      7691
      7691      7692      7691      7693      7691      7689      7689      7686
      7690      7686      7687      7686      7688      7686      7690      7683
      7683      7684      7683      7685      7683      7680      7680      7681
      7680      7682      7680      7667      7667      7676      7667      7672
      7667      7668      7676      7677      7676      7678      7676      7679
      7672      7673      7672      7674      7672      7675      7668      7669
      7668      7670      7668      7671      7696      7694      7694      7695
      7694      7746      7746      7748      7748      7749      7748      7750
      7748      7751      7751      7752      7751      7753      7751      7754
      7754      7755      7754      7756      7754      7757      7757      7758
      7757      7759      7757      7760      7760      7761      7760      7762
      7760      7763      7763      7764      7763      7765      7763      7766
      7766      7767      7766      7768      7766      7769      7769      7770
      7771      7772      7771      7773      7773      7774      7773      7775
      7773      7776      7776      7777      7776      7778      7776      7779
      7779      7780      7779      7781      7779      7782      7782      7783
      7782      7784      7782      7785      7785      7786      7785      7787
      7785      7788      7788      7789      7788      7790      7788      7791
      7791      7792      7791      7793      7791      7794      7794      7795
      7794      7796      7794      7797      7702      7704      7769      7771
      7746      7747      7873      7874      7873      7875      7873      7876
      7873      7870      7870      7871      7870      7872      7870      7867
      7867      7868      7867      7869      7867      7864      7864      7865
      7864      7866      7864      7861      7861      7862      7861      7863
      7861      7858      7858      7859      7858      7860      7858      7855
      7855      7856      7855      7857      7855      7852      7852      7853
      7852      7854      7852      7849      7849      7850      7849      7851
      7849      7846      7846      7847      7846      7848      7846      7843
      7843      7844      7843      7845      7843      7840      7840      7841
      7840      7842      7840      7837      7837      7838      7837      7839
      7837      7835      7835      7836      7833      7834      7833      7829
      7829      7830      7829      7831      7831      7832      7829      7827
      7827      7828      7827      7822      7822      7823      7822      7824
      7822      7820      7820      7817      7821      7817      7818      7817
      7819      7817      7821      7814      7814      7815      7814      7816
      7814      7811      7811      7812      7811      7813      7811      7798
      7798      7807      7798      7803      7798      7799      7807      7808
      7807      7809      7807      7810      7803      7804      7803      7805
      7803      7806      7799      7800      7799      7801      7799      7802
      7827      7825      7825      7826      7825      7877      7877      7879
      7879      7880      7879      7881      7879      7882      7882      7883
      7882      7884      7882      7885      7885      7886      7885      7887
      7885      7888      7888      7889      7888      7890      7888      7891
      7891      7892      7891      7893      7891      7894      7894      7895
      7894      7896      7894      7897      7897      7898      7897      7899
      7897      7900      7900      7901      7902      7903      7902      7904
      7904      7905      7904      7906      7904      7907      7907      7908
      7907      7909      7907      7910      7910      7911      7910      7912
      7910      7913      7913      7914      7913      7915      7913      7916
      7916      7917      7916      7918      7916      7919      7919      7920
      7919      7921      7919      7922      7922      7923      7922      7924
      7922      7925      7925      7926      7925      7927      7925      7928
      7833      7835      7900      7902      7877      7878      8004      8005
      8004      8006      8004      8007      8004      8001      8001      8002
      8001      8003      8001      7998      7998      7999      7998      8000
      7998      7995      7995      7996      7995      7997      7995      7992
      7992      7993      7992      7994      7992      7989      7989      7990
      7989      7991      7989      7986      7986      7987      7986      7988
      7986      7983      7983      7984      7983      7985      7983      7980
      7980      7981      7980      7982      7980      7977      7977      7978
      7977      7979      7977      7974      7974      7975      7974      7976
      7974      7971      7971      7972      7971      7973      7971      7968
      7968      7969      7968      7970      7968      7966      7966      7967
      7964      7965      7964      7960      7960      7961      7960      7962
      7962      7963      7960      7958      7958      7959      7958      7953
      7953      7954      7953      7955      7953      7951      7951      7948
      7952      7948      7949      7948      7950      7948      7952      7945
      7945      7946      7945      7947      7945      7942      7942      7943
      7942      7944      7942      7929      7929      7938      7929      7934
      7929      7930      7938      7939      7938      7940      7938      7941
      7934      7935      7934      7936      7934      7937      7930      7931
      7930      7932      7930      7933      7958      7956      7956      7957
      7956      8008      8008      8010      8010      8011      8010      8012
      8010      8013      8013      8014      8013      8015      8013      8016
      8016      8017      8016      8018      8016      8019      8019      8020
      8019      8021      8019      8022      8022      8023      8022      8024
      8022      8025      8025      8026      8025      8027      8025      8028
      8028      8029      8028      8030      8028      8031      8031      8032
      8033      8034      8033      8035      8035      8036      8035      8037
      8035      8038      8038      8039      8038      8040      8038      8041
      8041      8042      8041      8043      8041      8044      8044      8045
      8044      8046      8044      8047      8047      8048      8047      8049
      8047      8050      8050      8051      8050      8052      8050      8053
      8053      8054      8053      8055      8053      8056      8056      8057
      8056      8058      8056      8059      7964      7966      8031      8033
      8008      8009      8060      8064      8060      8068      8060      8072
      8064      8065      8064      8066      8064      8067      8068      8069
      8068      8070      8068      8071      8072      8073      8072      8074
      8072      8075      8060      8061      8061      8062      8061      8063
      8061      8076      8076      8077      8076      8078      8076      8082
      8083      8084      8082      8079      8079      8083      8079      8080
      8079      8081      8084      8085      8084      8086      8084      8087
      8087      8088      8087      8095      8087      8089      8095      8096
      8095      8097      8095      8098      8089      8090      8090      8092
      8090      8091      8092      8093      8092      8094      8092      8104
      8104      8105      8104      8106      8104      8107      8107      8108
      8107      8109      8107      8110      8110      8111      8110      8112
      8112      8113      8112      8114      8114      8115      8114      8116
      8114      8117      8117      8118      8117      8119      8119      8120
      8119      8121      8121      8122      8121      8123      8121      8124
      8124      8125      8124      8126      8126      8127      8126      8128
      8128      8129      8128      8130      8128      8131      8131      8132
      8131      8133      8133      8134      8133      8135      8135      8136
      8135      8137      8135      8138      8138      8139      8138      8140
      8138      8141      8141      8142      8141      8143      8141      8144
      8144      8145      8144      8146      8144      8147      8147      8148
      8147      8149      8147      8150      8098      8099      8099      8101
      8099      8100      8101      8102      8101      8103      8101      8151
      8151      8152      8151      8153      8151      8154      8154      8155
      8154      8156      8154      8157      8157      8158      8157      8159
      8157      8160      8160      8161      8160      8162      8160      8163
      8163      8164      8163      8165      8163      8166      8166      8167
      8166      8168      8166      8169      8169      8170      8169      8171
      8169      8172      8172      8173      8172      8174      8172      8175
      8175      8176      8175      8177      8175      8178      8178      8179
      8178      8180      8178      8181      8181      8182      8181      8183
      8181      8184      8184      8185      8184      8186      8184      8187
      8187      8188      8187      8189      8187      8190      8190      8191
      8190      8192      8190      8193      8193      8194      8193      8195
      8193      8196      8196      8197      8196      8198      8196      8199
      8275      8276      8275      8277      8275      8278      8275      8272
      8272      8273      8272      8274      8272      8269      8269      8270
      8269      8271      8269      8266      8266      8267      8266      8268
      8266      8263      8263      8264      8263      8265      8263      8260
      8260      8261      8260      8262      8260      8257      8257      8258
      8257      8259      8257      8254      8254      8255      8254      8256
      8254      8251      8251      8252      8251      8253      8251      8248
      8248      8249      8248      8250      8248      8245      8245      8246
      8245      8247      8245      8242      8242      8243      8242      8244
      8242      8239      8239      8240      8239      8241      8239      8237
      8237      8238      8235      8236      8235      8231      8231      8232
      8231      8233      8233      8234      8231      8229      8229      8230
      8229      8224      8224      8225      8224      8226      8224      8222
      8222      8219      8223      8219      8220      8219      8221      8219
      8223      8216      8216      8217      8216      8218      8216      8213
      8213      8214      8213      8215      8213      8200      8200      8209
      8200      8205      8200      8201      8209      8210      8209      8211
      8209      8212      8205      8206      8205      8207      8205      8208
      8201      8202      8201      8203      8201      8204      8229      8227
      8227      8228      8227      8279      8279      8281      8281      8282
      8281      8283      8281      8284      8284      8285      8284      8286
      8284      8287      8287      8288      8287      8289      8287      8290
      8290      8291      8290      8292      8290      8293      8293      8294
      8293      8295      8293      8296      8296      8297      8296      8298
      8296      8299      8299      8300      8299      8301      8299      8302
      8302      8303      8304      8305      8304      8306      8306      8307
      8306      8308      8306      8309      8309      8310      8309      8311
      8309      8312      8312      8313      8312      8314      8312      8315
      8315      8316      8315      8317      8315      8318      8318      8319
      8318      8320      8318      8321      8321      8322      8321      8323
      8321      8324      8324      8325      8324      8326      8324      8327
      8327      8328      8327      8329      8327      8330      8235      8237
      8302      8304      8279      8280      8406      8407      8406      8408
      8406      8409      8406      8403      8403      8404      8403      8405
      8403      8400      8400      8401      8400      8402      8400      8397
      8397      8398      8397      8399      8397      8394      8394      8395
      8394      8396      8394      8391      8391      8392      8391      8393
      8391      8388      8388      8389      8388      8390      8388      8385
      8385      8386      8385      8387      8385      8382      8382      8383
      8382      8384      8382      8379      8379      8380      8379      8381
      8379      8376      8376      8377      8376      8378      8376      8373
      8373      8374      8373      8375      8373      8370      8370      8371
      8370      8372      8370      8368      8368      8369      8366      8367
      8366      8362      8362      8363      8362      8364      8364      8365
      8362      8360      8360      8361      8360      8355      8355      8356
      8355      8357      8355      8353      8353      8350      8354      8350
      8351      8350      8352      8350      8354      8347      8347      8348
      8347      8349      8347      8344      8344      8345      8344      8346
      8344      8331      8331      8340      8331      8336      8331      8332
      8340      8341      8340      8342      8340      8343      8336      8337
      8336      8338      8336      8339      8332      8333      8332      8334
      8332      8335      8360      8358      8358      8359      8358      8410
      8410      8412      8412      8413      8412      8414      8412      8415
      8415      8416      8415      8417      8415      8418      8418      8419
      8418      8420      8418      8421      8421      8422      8421      8423
      8421      8424      8424      8425      8424      8426      8424      8427
      8427      8428      8427      8429      8427      8430      8430      8431
      8430      8432      8430      8433      8433      8434      8435      8436
      8435      8437      8437      8438      8437      8439      8437      8440
      8440      8441      8440      8442      8440      8443      8443      8444
      8443      8445      8443      8446      8446      8447      8446      8448
      8446      8449      8449      8450      8449      8451      8449      8452
      8452      8453      8452      8454      8452      8455      8455      8456
      8455      8457      8455      8458      8458      8459      8458      8460
      8458      8461      8366      8368      8433      8435      8410      8411
      8462      8463      8462      8464      8462      8465      8462      8466
      8470      8468      8468      8466      8468      8469      8466      8467
      8466      8471      8479      8478      8471      8472      8471      8473
      8471      8477      8477      8474      8474      8478      8474      8475
      8474      8476      8479      8480      8479      8481      8479      8482
      8482      8483      8482      8490      8482      8484      8490      8491
      8490      8492      8490      8493      8484      8485      8485      8487
      8485      8486      8487      8488      8487      8489      8487      8499
      8499      8500      8499      8501      8499      8502      8502      8503
      8502      8504      8502      8505      8505      8506      8505      8507
      8507      8508      8507      8509      8509      8510      8509      8511
      8509      8512      8512      8513      8512      8514      8514      8515
      8514      8516      8516      8517      8516      8518      8516      8519
      8519      8520      8519      8521      8521      8522      8521      8523
      8523      8524      8523      8525      8523      8526      8526      8527
      8526      8528      8528      8529      8528      8530      8530      8531
      8530      8532      8530      8533      8533      8534      8533      8535
      8533      8536      8536      8537      8536      8538      8536      8539
      8539      8540      8539      8541      8539      8542      8542      8543
      8542      8544      8542      8545      8493      8494      8494      8496
      8494      8495      8496      8497      8496      8498      8496      8546
      8546      8547      8546      8548      8546      8549      8549      8550
      8549      8551      8549      8552      8552      8553      8552      8554
      8552      8555      8555      8556      8555      8557      8555      8558
      8558      8559      8558      8560      8558      8561      8561      8562
      8561      8563      8561      8564      8564      8565      8564      8566
      8564      8567      8567      8568      8567      8569      8567      8570
      8570      8571      8570      8572      8570      8573      8573      8574
      8573      8575      8573      8576      8576      8577      8576      8578
      8576      8579      8579      8580      8579      8581      8579      8582
      8582      8583      8582      8584      8582      8585      8585      8586
      8585      8587      8585      8588      8588      8589      8588      8590
      8588      8591      8591      8592      8591      8593      8591      8594
      8595      8597      8595      8596      8597      8598      8595      8641
      8641      8642      8641      8643      8641      8638      8638      8639
      8638      8640      8595      8599      8599      8600      8599      8601
      8599      8602      8602      8633      8633      8638      8633      8634
      8634      8635      8634      8636      8634      8637      8602      8603
      8603      8604      8603      8605      8605      8606      8605      8607
      8605      8608      8608      8609      8608      8631      8631      8632
      8631      8633      8608      8610      8610      8611      8610      8620
      8620      8625      8625      8626      8625      8627      8625      8628
      8628      8629      8628      8630      8628      8631      8620      8621
      8621      8622      8621      8623      8621      8624      8610      8612
      8612      8613      8612      8614      8612      8615      8615      8616
      8615      8617      8615      8618      8618      8619      8618      8620
      8618      8644      8644      8645      8644      8646      8646      8647
      8646      8648      8646      8649      8644      8650      8650      8651
      8650      8652      8650      8653      8653      8654      8653      8655
      8653      8656      8656      8657      8656      8658      8656      8659
      8659      8660      8659      8661      8661      8662      8661      8663
      8661      8664      8659      8665      8665      8666      8665      8667
      8665      8668      8669      8670      8669      8674      8669      8678
      8670      8671      8670      8672      8670      8673      8674      8675
      8674      8676      8674      8677      8678      8679      8678      8680
      8678      8681      8669      8682      8682      8683      8682      8684
      8682      8685      8685      8686      8685      8687      8685      8691
      8692      8693      8691      8688      8688      8692      8688      8689
      8688      8690      8693      8694      8693      8695      8693      8696
      8696      8697      8696      8704      8696      8698      8704      8705
      8704      8706      8704      8707      8698      8699      8699      8701
      8699      8700      8701      8702      8701      8703      8701      8713
      8713      8714      8713      8715      8713      8716      8716      8717
      8716      8718      8716      8719      8719      8720      8719      8721
      8719      8722      8722      8723      8722      8724      8722      8725
      8725      8726      8725      8727      8725      8728      8728      8729
      8728      8730      8728      8731      8731      8732      8731      8733
      8733      8734      8733      8735      8735      8736      8735      8737
      8735      8738      8738      8739      8738      8740      8740      8741
      8740      8742      8742      8743      8742      8744      8742      8745
      8745      8746      8745      8747      8745      8748      8748      8749
      8748      8750      8748      8751      8751      8752      8751      8753
      8751      8754      8754      8755      8754      8756      8754      8757
      8707      8708      8708      8710      8708      8709      8710      8711
      8710      8712      8710      8758      8758      8759      8758      8760
      8758      8761      8761      8762      8761      8763      8761      8764
      8764      8765      8764      8766      8764      8767      8767      8768
      8767      8769      8767      8770      8770      8771      8770      8772
      8770      8773      8773      8774      8773      8775      8773      8776
      8776      8777      8776      8778      8776      8779      8779      8780
      8779      8781      8779      8782      8782      8783      8782      8784
      8782      8785      8785      8786      8785      8787      8785      8788
      8788      8789      8788      8790      8788      8791      8791      8792
      8791      8793      8791      8794      8794      8795      8794      8796
      8794      8797      8797      8798      8797      8799      8797      8800
      8800      8801      8800      8802      8800      8803      8803      8804
      8803      8805      8803      8806      8827      8828      8827      8823
      8827      8807      8827      8832      8807      8808      8807      8809
      8809      8810      8807      8811      8811      8812      8811      8813
      8813      8814      8811      8815      8815      8816      8815      8817
      8817      8818      8815      8819      8819      8820      8819      8823
      8823      8824      8823      8825      8825      8826      8819      8821
      8821      8822      8832      8829      8829      8833      8829      8830
      8829      8831      8833      8834      8834      8835      8834      8836
      8834      8837      8837      8838      8837      8845      8837      8839
      8845      8846      8845      8847      8845      8848      8839      8840
      8840      8842      8840      8841      8842      8843      8842      8844
      8842      8854      8854      8855      8854      8856      8854      8857
      8857      8858      8857      8859      8857      8860      8860      8861
      8860      8862      8862      8863      8862      8864      8864      8865
      8864      8866      8864      8867      8867      8868      8867      8869
      8869      8870      8869      8871      8871      8872      8871      8873
      8871      8874      8874      8875      8874      8876      8876      8877
      8876      8878      8878      8879      8878      8880      8878      8881
      8881      8882      8881      8883      8883      8884      8883      8885
      8885      8886      8885      8887      8885      8888      8888      8889
      8888      8890      8888      8891      8891      8892      8891      8893
      8891      8894      8894      8895      8894      8896      8894      8897
      8897      8898      8897      8899      8897      8900      8848      8849
      8849      8851      8849      8850      8851      8852      8851      8853
      8851      8901      8901      8902      8901      8903      8901      8904
      8904      8905      8904      8906      8904      8907      8907      8908
      8907      8909      8907      8910      8910      8911      8910      8912
      8910      8913      8913      8914      8913      8915      8913      8916
      8916      8917      8916      8918      8916      8919      8919      8920
      8919      8921      8919      8922      8922      8923      8922      8924
      8922      8925      8925      8926      8925      8927      8925      8928
      8928      8929      8928      8930      8928      8931      8931      8932
      8931      8933      8931      8934      8934      8935      8934      8936
      8934      8937      8937      8938      8937      8939      8937      8940
      8940      8941      8940      8942      8940      8943      8943      8944
      8943      8945      8943      8946      8946      8947      8946      8948
      8946      8949      9025      9026      9025      9027      9025      9028
      9025      9022      9022      9023      9022      9024      9022      9019
      9019      9020      9019      9021      9019      9016      9016      9017
      9016      9018      9016      9013      9013      9014      9013      9015
      9013      9010      9010      9011      9010      9012      9010      9007
      9007      9008      9007      9009      9007      9004      9004      9005
      9004      9006      9004      9001      9001      9002      9001      9003
      9001      8998      8998      8999      8998      9000      8998      8995
      8995      8996      8995      8997      8995      8992      8992      8993
      8992      8994      8992      8989      8989      8990      8989      8991
      8989      8987      8987      8988      8985      8986      8985      8981
      8981      8982      8981      8983      8983      8984      8981      8979
      8979      8980      8979      8974      8974      8975      8974      8976
      8974      8972      8972      8969      8973      8969      8970      8969
      8971      8969      8973      8966      8966      8967      8966      8968
      8966      8963      8963      8964      8963      8965      8963      8950
      8950      8959      8950      8955      8950      8951      8959      8960
      8959      8961      8959      8962      8955      8956      8955      8957
      8955      8958      8951      8952      8951      8953      8951      8954
      8979      8977      8977      8978      8977      9029      9029      9031
      9031      9032      9031      9033      9031      9034      9034      9035
      9034      9036      9034      9037      9037      9038      9037      9039
      9037      9040      9040      9041      9040      9042      9040      9043
      9043      9044      9043      9045      9043      9046      9046      9047
      9046      9048      9046      9049      9049      9050      9049      9051
      9049      9052      9052      9053      9054      9055      9054      9056
      9056      9057      9056      9058      9056      9059      9059      9060
      9059      9061      9059      9062      9062      9063      9062      9064
      9062      9065      9065      9066      9065      9067      9065      9068
      9068      9069      9068      9070      9068      9071      9071      9072
      9071      9073      9071      9074      9074      9075      9074      9076
      9074      9077      9077      9078      9077      9079      9077      9080
      8985      8987      9052      9054      9029      9030      9081      9082
      9081      9083      9081      9084      9081      9085      9085      9086
      9085      9087      9085      9088      9088      9089      9088      9090
      9088      9094      9096      9095      9094      9091      9091      9095
      9091      9092      9091      9093      9096      9097      9096      9098
      9096      9099      9099      9100      9099      9107      9099      9101
      9107      9108      9107      9109      9107      9110      9101      9102
      9102      9104      9102      9103      9104      9105      9104      9106
      9104      9116      9116      9117      9116      9118      9116      9119
      9119      9120      9119      9121      9119      9122      9122      9123
      9122      9124      9124      9125      9124      9126      9126      9127
      9126      9128      9126      9129      9129      9130      9129      9131
      9131      9132      9131      9133      9133      9134      9133      9135
      9133      9136      9136      9137      9136      9138      9138      9139
      9138      9140      9140      9141      9140      9142      9140      9143
      9143      9144      9143      9145      9145      9146      9145      9147
      9147      9148      9147      9149      9147      9150      9150      9151
      9150      9152      9150      9153      9153      9154      9153      9155
      9153      9156      9156      9157      9156      9158      9156      9159
      9159      9160      9159      9161      9159      9162      9110      9111
      9111      9113      9111      9112      9113      9114      9113      9115
      9113      9163      9163      9164      9163      9165      9163      9166
      9166      9167      9166      9168      9166      9169      9169      9170
      9169      9171      9169      9172      9172      9173      9172      9174
      9172      9175      9175      9176      9175      9177      9175      9178
      9178      9179      9178      9180      9178      9181      9181      9182
      9181      9183      9181      9184      9184      9185      9184      9186
      9184      9187      9187      9188      9187      9189      9187      9190
      9190      9191      9190      9192      9190      9193      9193      9194
      9193      9195      9193      9196      9196      9197      9196      9198
      9196      9199      9199      9200      9199      9201      9199      9202
      9202      9203      9202      9204      9202      9205      9205      9206
      9205      9207      9205      9208      9208      9209      9208      9210
      9208      9211      9212      9214      9212      9213      9214      9215
      9212      9258      9258      9259      9258      9260      9258      9255
      9255      9256      9255      9257      9212      9216      9216      9217
      9216      9218      9216      9219      9219      9250      9250      9255
      9250      9251      9251      9252      9251      9253      9251      9254
      9219      9220      9220      9221      9220      9222      9222      9223
      9222      9224      9222      9225      9225      9226      9225      9248
      9248      9249      9248      9250      9225      9227      9227      9228
      9227      9237      9237      9242      9242      9243      9242      9244
      9242      9245      9245      9246      9245      9247      9245      9248
      9237      9238      9238      9239      9238      9240      9238      9241
      9227      9229      9229      9230      9229      9231      9229      9232
      9232      9233      9232      9234      9232      9235      9235      9236
      9235      9237      9235      9261      9261      9262      9261      9263
      9263      9264      9263      9265      9263      9266      9261      9267
      9267      9268      9267      9269      9267      9270      9270      9271
      9270      9272      9270      9273      9273      9274      9273      9275
      9273      9276      9276      9277      9276      9278      9278      9279
      9278      9280      9278      9281      9276      9282      9282      9283
      9282      9284      9282      9285      9286      9287      9286      9288
      9286      9289      9286      9290      9290      9291      9290      9292
      9290      9293      9293      9294      9293      9295      9293      9299
      9301      9300      9299      9296      9296      9300      9296      9297
      9296      9298      9301      9302      9301      9303      9301      9304
      9304      9305      9304      9312      9304      9306      9312      9313
      9312      9314      9312      9315      9306      9307      9307      9309
      9307      9308      9309      9310      9309      9311      9309      9321
      9321      9322      9321      9323      9321      9324      9324      9325
      9324      9326      9324      9327      9327      9328      9327      9329
      9329      9330      9329      9331      9331      9332      9331      9333
      9331      9334      9334      9335      9334      9336      9336      9337
      9336      9338      9338      9339      9338      9340      9338      9341
      9341      9342      9341      9343      9343      9344      9343      9345
      9345      9346      9345      9347      9345      9348      9348      9349
      9348      9350      9350      9351      9350      9352      9352      9353
      9352      9354      9352      9355      9355      9356      9355      9357
      9355      9358      9358      9359      9358      9360      9358      9361
      9361      9362      9361      9363      9361      9364      9364      9365
      9364      9366      9364      9367      9315      9316      9316      9318
      9316      9317      9318      9319      9318      9320      9318      9368
      9368      9369      9368      9370      9368      9371      9371      9372
      9371      9373      9371      9374      9374      9375      9374      9376
      9374      9377      9377      9378      9377      9379      9377      9380
      9380      9381      9380      9382      9380      9383      9383      9384
      9383      9385      9383      9386      9386      9387      9386      9388
      9386      9389      9389      9390      9389      9391      9389      9392
      9392      9393      9392      9394      9392      9395      9395      9396
      9395      9397      9395      9398      9398      9399      9398      9400
      9398      9401      9401      9402      9401      9403      9401      9404
      9404      9405      9404      9406      9404      9407      9407      9408
      9407      9409      9407      9410      9410      9411      9410      9412
      9410      9413      9413      9414      9413      9415      9413      9416
      9417      9418      9417      9422      9417      9426      9418      9419
      9418      9420      9418      9421      9422      9423      9422      9424
      9422      9425      9426      9427      9426      9428      9426      9429
      9417      9430      9430      9431      9430      9432      9430      9433
      9433      9434      9433      9435      9433      9439      9440      9441
      9439      9436      9436      9440      9436      9437      9436      9438
      9441      9442      9441      9443      9441      9444      9444      9445
      9444      9452      9444      9446      9452      9453      9452      9454
      9452      9455      9446      9447      9447      9449      9447      9448
      9449      9450      9449      9451      9449      9461      9461      9462
      9461      9463      9461      9464      9464      9465      9464      9466
      9464      9467      9467      9468      9467      9469      9467      9470
      9470      9471      9470      9472      9470      9473      9473      9474
      9473      9475      9473      9476      9476      9477      9476      9478
      9476      9479      9479      9480      9479      9481      9481      9482
      9481      9483      9483      9484      9483      9485      9483      9486
      9486      9487      9486      9488      9488      9489      9488      9490
      9490      9491      9490      9492      9490      9493      9493      9494
      9493      9495      9493      9496      9496      9497      9496      9498
      9496      9499      9499      9500      9499      9501      9499      9502
      9502      9503      9502      9504      9502      9505      9455      9456
      9456      9458      9456      9457      9458      9459      9458      9460
      9458      9506      9506      9507      9506      9508      9506      9509
      9509      9510      9509      9511      9509      9512      9512      9513
      9512      9514      9512      9515      9515      9516      9515      9517
      9515      9518      9518      9519      9518      9520      9518      9521
      9521      9522      9521      9523      9521      9524      9524      9525
      9524      9526      9524      9527      9527      9528      9527      9529
      9527      9530      9530      9531      9530      9532      9530      9533
      9533      9534      9533      9535      9533      9536      9536      9537
      9536      9538      9536      9539      9539      9540      9539      9541
      9539      9542      9542      9543      9542      9544      9542      9545
      9545      9546      9545      9547      9545      9548      9548      9549
      9548      9550      9548      9551      9551      9552      9551      9553
      9551      9554      9555      9559      9555      9563      9555      9567
      9559      9560      9559      9561      9559      9562      9563      9564
      9563      9565      9563      9566      9567      9568      9567      9569
      9567      9570      9555      9556      9556      9557      9556      9558
      9556      9571      9571      9572      9571      9573      9571      9577
      9578      9579      9577      9574      9574      9578      9574      9575
      9574      9576      9579      9580      9579      9581      9579      9582
      9582      9583      9582      9590      9582      9584      9590      9591
      9590      9592      9590      9593      9584      9585      9585      9587
      9585      9586      9587      9588      9587      9589      9587      9599
      9599      9600      9599      9601      9599      9602      9602      9603
      9602      9604      9602      9605      9605      9606      9605      9607
      9607      9608      9607      9609      9609      9610      9609      9611
      9609      9612      9612      9613      9612      9614      9614      9615
      9614      9616      9616      9617      9616      9618      9616      9619
      9619      9620      9619      9621      9621      9622      9621      9623
      9623      9624      9623      9625      9623      9626      9626      9627
      9626      9628      9628      9629      9628      9630      9630      9631
      9630      9632      9630      9633      9633      9634      9633      9635
      9633      9636      9636      9637      9636      9638      9636      9639
      9639      9640      9639      9641      9639      9642      9642      9643
      9642      9644      9642      9645      9593      9594      9594      9596
      9594      9595      9596      9597      9596      9598      9596      9646
      9646      9647      9646      9648      9646      9649      9649      9650
      9649      9651      9649      9652      9652      9653      9652      9654
      9652      9655      9655      9656      9655      9657      9655      9658
      9658      9659      9658      9660      9658      9661      9661      9662
      9661      9663      9661      9664      9664      9665      9664      9666
      9664      9667      9667      9668      9667      9669      9667      9670
      9670      9671      9670      9672      9670      9673      9673      9674
      9673      9675      9673      9676      9676      9677      9676      9678
      9676      9679      9679      9680      9679      9681      9679      9682
      9682      9683      9682      9684      9682      9685      9685      9686
      9685      9687      9685      9688      9688      9689      9688      9690
      9688      9691      9691      9692      9691      9693      9691      9694
      9695      9696      9695      9697      9695      9698      9695      9699
      9699      9700      9699      9701      9699      9702      9702      9703
      9702      9704      9702      9708      9710      9709      9708      9705
      9705      9709      9705      9706      9705      9707      9710      9711
      9710      9712      9710      9713      9713      9714      9713      9721
      9713      9715      9721      9722      9721      9723      9721      9724
      9715      9716      9716      9718      9716      9717      9718      9719
      9718      9720      9718      9730      9730      9731      9730      9732
      9730      9733      9733      9734      9733      9735      9733      9736
      9736      9737      9736      9738      9738      9739      9738      9740
      9740      9741      9740      9742      9740      9743      9743      9744
      9743      9745      9745      9746      9745      9747      9747      9748
      9747      9749      9747      9750      9750      9751      9750      9752
      9752      9753      9752      9754      9754      9755      9754      9756
      9754      9757      9757      9758      9757      9759      9759      9760
      9759      9761      9761      9762      9761      9763      9761      9764
      9764      9765      9764      9766      9764      9767      9767      9768
      9767      9769      9767      9770      9770      9771      9770      9772
      9770      9773      9773      9774      9773      9775      9773      9776
      9724      9725      9725      9727      9725      9726      9727      9728
      9727      9729      9727      9777      9777      9778      9777      9779
      9777      9780      9780      9781      9780      9782      9780      9783
      9783      9784      9783      9785      9783      9786      9786      9787
      9786      9788      9786      9789      9789      9790      9789      9791
      9789      9792      9792      9793      9792      9794      9792      9795
      9795      9796      9795      9797      9795      9798      9798      9799
      9798      9800      9798      9801      9801      9802      9801      9803
      9801      9804      9804      9805      9804      9806      9804      9807
      9807      9808      9807      9809      9807      9810      9810      9811
      9810      9812      9810      9813      9813      9814      9813      9815
      9813      9816      9816      9817      9816      9818      9816      9819
      9819      9820      9819      9821      9819      9822      9822      9823
      9822      9824      9822      9825      9826      9828      9826      9827
      9828      9829      9826      9872      9872      9873      9872      9874
      9872      9869      9869      9870      9869      9871      9826      9830
      9830      9831      9830      9832      9830      9833      9833      9864
      9864      9869      9864      9865      9865      9866      9865      9867
      9865      9868      9833      9834      9834      9835      9834      9836
      9836      9837      9836      9838      9836      9839      9839      9840
      9839      9862      9862      9863      9862      9864      9839      9841
      9841      9842      9841      9851      9851      9856      9856      9857
      9856      9858      9856      9859      9859      9860      9859      9861
      9859      9862      9851      9852      9852      9853      9852      9854
      9852      9855      9841      9843      9843      9844      9843      9845
      9843      9846      9846      9847      9846      9848      9846      9849
      9849      9850      9849      9851      9849      9875      9875      9876
      9875      9877      9877      9878      9877      9879      9877      9880
      9875      9881      9881      9882      9881      9883      9881      9884
      9884      9885      9884      9886      9884      9887      9887      9888
      9887      9889      9887      9890      9890      9891      9890      9892
      9892      9893      9892      9894      9892      9895      9890      9896
      9896      9897      9896      9898      9896      9899      9900      9901
      9900      9902      9900      9903      9900      9904      9908      9906
      9906      9904      9906      9907      9904      9905      9904      9909
      9917      9916      9909      9910      9909      9911      9909      9915
      9915      9912      9912      9916      9912      9913      9912      9914
      9917      9918      9917      9919      9917      9920      9920      9921
      9920      9928      9920      9922      9928      9929      9928      9930
      9928      9931      9922      9923      9923      9925      9923      9924
      9925      9926      9925      9927      9925      9937      9937      9938
      9937      9939      9937      9940      9940      9941      9940      9942
      9940      9943      9943      9944      9943      9945      9945      9946
      9945      9947      9947      9948      9947      9949      9947      9950
      9950      9951      9950      9952      9952      9953      9952      9954
      9954      9955      9954      9956      9954      9957      9957      9958
      9957      9959      9959      9960      9959      9961      9961      9962
      9961      9963      9961      9964      9964      9965      9964      9966
      9966      9967      9966      9968      9968      9969      9968      9970
      9968      9971      9971      9972      9971      9973      9971      9974
      9974      9975      9974      9976      9974      9977      9977      9978
      9977      9979      9977      9980      9980      9981      9980      9982
      9980      9983      9931      9932      9932      9934      9932      9933
      9934      9935      9934      9936      9934      9984      9984      9985
      9984      9986      9984      9987      9987      9988      9987      9989
      9987      9990      9990      9991      9990      9992      9990      9993
      9993      9994      9993      9995      9993      9996      9996      9997
      9996      9998      9996      9999      9999     10000      9999     10001
      9999     10002     10002     10003     10002     10004     10002     10005
     10005     10006     10005     10007     10005     10008     10008     10009
     10008     10010     10008     10011     10011     10012     10011     10013
     10011     10014     10014     10015     10014     10016     10014     10017
     10017     10018     10017     10019     10017     10020     10020     10021
     10020     10022     10020     10023     10023     10024     10023     10025
     10023     10026     10026     10027     10026     10028     10026     10029
     10029     10030     10029     10031     10029     10032     10033     10035
     10033     10034     10035     10036     10033     10079     10079     10080
     10079     10081     10079     10076     10076     10077     10076     10078
     10033     10037     10037     10038     10037     10039     10037     10040
     10040     10071     10071     10076     10071     10072     10072     10073
     10072     10074     10072     10075     10040     10041     10041     10042
     10041     10043     10043     10044     10043     10045     10043     10046
     10046     10047     10046     10069     10069     10070     10069     10071
     10046     10048     10048     10049     10048     10058     10058     10063
     10063     10064     10063     10065     10063     10066     10066     10067
     10066     10068     10066     10069     10058     10059     10059     10060
     10059     10061     10059     10062     10048     10050     10050     10051
     10050     10052     10050     10053     10053     10054     10053     10055
     10053     10056     10056     10057     10056     10058     10056     10082
     10082     10083     10082     10084     10084     10085     10084     10086
     10084     10087     10082     10088     10088     10089     10088     10090
     10088     10091     10091     10092     10091     10093     10091     10094
     10094     10095     10094     10096     10094     10097     10097     10098
     10097     10099     10099     10100     10099     10101     10099     10102
     10097     10103     10103     10104     10103     10105     10103     10106
     10182     10183     10182     10184     10182     10185     10182     10179
     10179     10180     10179     10181     10179     10176     10176     10177
     10176     10178     10176     10173     10173     10174     10173     10175
     10173     10170     10170     10171     10170     10172     10170     10167
     10167     10168     10167     10169     10167     10164     10164     10165
     10164     10166     10164     10161     10161     10162     10161     10163
     10161     10158     10158     10159     10158     10160     10158     10155
     10155     10156     10155     10157     10155     10152     10152     10153
     10152     10154     10152     10149     10149     10150     10149     10151
     10149     10146     10146     10147     10146     10148     10146     10144
     10144     10145     10142     10143     10142     10138     10138     10139
     10138     10140     10140     10141     10138     10136     10136     10137
     10136     10131     10131     10132     10131     10133     10131     10129
     10129     10126     10130     10126     10127     10126     10128     10126
     10130     10123     10123     10124     10123     10125     10123     10120
     10120     10121     10120     10122     10120     10107     10107     10116
     10107     10112     10107     10108     10116     10117     10116     10118
     10116     10119     10112     10113     10112     10114     10112     10115
     10108     10109     10108     10110     10108     10111     10136     10134
     10134     10135     10134     10186     10186     10188     10188     10189
     10188     10190     10188     10191     10191     10192     10191     10193
     10191     10194     10194     10195     10194     10196     10194     10197
     10197     10198     10197     10199     10197     10200     10200     10201
     10200     10202     10200     10203     10203     10204     10203     10205
     10203     10206     10206     10207     10206     10208     10206     10209
     10209     10210     10211     10212     10211     10213     10213     10214
     10213     10215     10213     10216     10216     10217     10216     10218
     10216     10219     10219     10220     10219     10221     10219     10222
     10222     10223     10222     10224     10222     10225     10225     10226
     10225     10227     10225     10228     10228     10229     10228     10230
     10228     10231     10231     10232     10231     10233     10231     10234
     10234     10235     10234     10236     10234     10237     10142     10144
     10209     10211     10186     10187     10238     10239     10238     10240
     10238     10241     10238     10242     10242     10243     10242     10244
     10242     10245     10245     10246     10245     10247     10245     10251
     10253     10252     10251     10248     10248     10252     10248     10249
     10248     10250     10253     10254     10253     10255     10253     10256
     10256     10257     10256     10264     10256     10258     10264     10265
     10264     10266     10264     10267     10258     10259     10259     10261
     10259     10260     10261     10262     10261     10263     10261     10273
     10273     10274     10273     10275     10273     10276     10276     10277
     10276     10278     10276     10279     10279     10280     10279     10281
     10281     10282     10281     10283     10283     10284     10283     10285
     10283     10286     10286     10287     10286     10288     10288     10289
     10288     10290     10290     10291     10290     10292     10290     10293
     10293     10294     10293     10295     10295     10296     10295     10297
     10297     10298     10297     10299     10297     10300     10300     10301
     10300     10302     10302     10303     10302     10304     10304     10305
     10304     10306     10304     10307     10307     10308     10307     10309
     10307     10310     10310     10311     10310     10312     10310     10313
     10313     10314     10313     10315     10313     10316     10316     10317
     10316     10318     10316     10319     10267     10268     10268     10270
     10268     10269     10270     10271     10270     10272     10270     10320
     10320     10321     10320     10322     10320     10323     10323     10324
     10323     10325     10323     10326     10326     10327     10326     10328
     10326     10329     10329     10330     10329     10331     10329     10332
     10332     10333     10332     10334     10332     10335     10335     10336
     10335     10337     10335     10338     10338     10339     10338     10340
     10338     10341     10341     10342     10341     10343     10341     10344
     10344     10345     10344     10346     10344     10347     10347     10348
     10347     10349     10347     10350     10350     10351     10350     10352
     10350     10353     10353     10354     10353     10355     10353     10356
     10356     10357     10356     10358     10356     10359     10359     10360
     10359     10361     10359     10362     10362     10363     10362     10364
     10362     10365     10365     10366     10365     10367     10365     10368
     10369     10370     10369     10371     10369     10372     10369     10373
     10373     10374     10373     10375     10373     10376     10376     10377
     10376     10378     10376     10382     10384     10383     10382     10379
     10379     10383     10379     10380     10379     10381     10384     10385
     10384     10386     10384     10387     10387     10388     10387     10395
     10387     10389     10395     10396     10395     10397     10395     10398
     10389     10390     10390     10392     10390     10391     10392     10393
     10392     10394     10392     10404     10404     10405     10404     10406
     10404     10407     10407     10408     10407     10409     10407     10410
     10410     10411     10410     10412     10410     10413     10413     10414
     10413     10415     10413     10416     10416     10417     10416     10418
     10416     10419     10419     10420     10419     10421     10419     10422
     10422     10423     10422     10424     10424     10425     10424     10426
     10426     10427     10426     10428     10426     10429     10429     10430
     10429     10431     10429     10432     10432     10433     10432     10434
     10432     10435     10435     10436     10435     10437     10435     10438
     10438     10439     10438     10440     10438     10441     10441     10442
     10441     10443     10441     10444     10444     10445     10444     10446
     10444     10447     10447     10448     10447     10449     10447     10450
     10398     10399     10399     10401     10399     10400     10401     10402
     10401     10403     10401     10451     10451     10452     10451     10453
     10451     10454     10454     10455     10454     10456     10454     10457
     10457     10458     10457     10459     10457     10460     10460     10461
     10460     10462     10460     10463     10463     10464     10463     10465
     10463     10466     10466     10467     10466     10468     10466     10469
     10469     10470     10469     10471     10469     10472     10472     10473
     10472     10474     10472     10475     10475     10476     10475     10477
     10475     10478     10478     10479     10478     10480     10478     10481
     10481     10482     10481     10483     10481     10484     10484     10485
     10484     10486     10484     10487     10487     10488     10487     10489
     10487     10490     10490     10491     10490     10492     10490     10493
     10493     10494     10493     10495     10493     10496     10496     10497
     10496     10498     10496     10499     10500     10504     10500     10508
     10500     10512     10504     10505     10504     10506     10504     10507
     10508     10509     10508     10510     10508     10511     10512     10513
     10512     10514     10512     10515     10500     10501     10501     10502
     10501     10503     10501     10516     10516     10517     10516     10518
     10516     10522     10523     10524     10522     10519     10519     10523
     10519     10520     10519     10521     10524     10525     10524     10526
     10524     10527     10527     10528     10527     10535     10527     10529
     10535     10536     10535     10537     10535     10538     10529     10530
     10530     10532     10530     10531     10532     10533     10532     10534
     10532     10544     10544     10545     10544     10546     10544     10547
     10547     10548     10547     10549     10547     10550     10550     10551
     10550     10552     10552     10553     10552     10554     10554     10555
     10554     10556     10554     10557     10557     10558     10557     10559
     10559     10560     10559     10561     10561     10562     10561     10563
     10561     10564     10564     10565     10564     10566     10566     10567
     10566     10568     10568     10569     10568     10570     10568     10571
     10571     10572     10571     10573     10573     10574     10573     10575
     10575     10576     10575     10577     10575     10578     10578     10579
     10578     10580     10578     10581     10581     10582     10581     10583
     10581     10584     10584     10585     10584     10586     10584     10587
     10587     10588     10587     10589     10587     10590     10538     10539
     10539     10541     10539     10540     10541     10542     10541     10543
     10541     10591     10591     10592     10591     10593     10591     10594
     10594     10595     10594     10596     10594     10597     10597     10598
     10597     10599     10597     10600     10600     10601     10600     10602
     10600     10603     10603     10604     10603     10605     10603     10606
     10606     10607     10606     10608     10606     10609     10609     10610
     10609     10611     10609     10612     10612     10613     10612     10614
     10612     10615     10615     10616     10615     10617     10615     10618
     10618     10619     10618     10620     10618     10621     10621     10622
     10621     10623     10621     10624     10624     10625     10624     10626
     10624     10627     10627     10628     10627     10629     10627     10630
     10630     10631     10630     10632     10630     10633     10633     10634
     10633     10635     10633     10636     10636     10637     10636     10638
     10636     10639     10640     10642     10640     10641     10642     10643
     10640     10686     10686     10687     10686     10688     10686     10683
     10683     10684     10683     10685     10640     10644     10644     10645
     10644     10646     10644     10647     10647     10678     10678     10683
     10678     10679     10679     10680     10679     10681     10679     10682
     10647     10648     10648     10649     10648     10650     10650     10651
     10650     10652     10650     10653     10653     10654     10653     10676
     10676     10677     10676     10678     10653     10655     10655     10656
     10655     10665     10665     10670     10670     10671     10670     10672
     10670     10673     10673     10674     10673     10675     10673     10676
     10665     10666     10666     10667     10666     10668     10666     10669
     10655     10657     10657     10658     10657     10659     10657     10660
     10660     10661     10660     10662     10660     10663     10663     10664
     10663     10665     10663     10689     10689     10690     10689     10691
     10691     10692     10691     10693     10691     10694     10689     10695
     10695     10696     10695     10697     10695     10698     10698     10699
     10698     10700     10698     10701     10701     10702     10701     10703
     10701     10704     10704     10705     10704     10706     10706     10707
     10706     10708     10706     10709     10704     10710     10710     10711
     10710     10712     10710     10713     10714     10718     10714     10722
     10714     10726     10718     10719     10718     10720     10718     10721
     10722     10723     10722     10724     10722     10725     10726     10727
     10726     10728     10726     10729     10714     10715     10715     10716
     10715     10717     10715     10730     10730     10731     10730     10732
     10730     10736     10737     10738     10736     10733     10733     10737
     10733     10734     10733     10735     10738     10739     10738     10740
     10738     10741     10741     10742     10741     10749     10741     10743
     10749     10750     10749     10751     10749     10752     10743     10744
     10744     10746     10744     10745     10746     10747     10746     10748
     10746     10758     10758     10759     10758     10760     10758     10761
     10761     10762     10761     10763     10761     10764     10764     10765
     10764     10766     10766     10767     10766     10768     10768     10769
     10768     10770     10768     10771     10771     10772     10771     10773
     10773     10774     10773     10775     10775     10776     10775     10777
     10775     10778     10778     10779     10778     10780     10780     10781
     10780     10782     10782     10783     10782     10784     10782     10785
     10785     10786     10785     10787     10787     10788     10787     10789
     10789     10790     10789     10791     10789     10792     10792     10793
     10792     10794     10792     10795     10795     10796     10795     10797
     10795     10798     10798     10799     10798     10800     10798     10801
     10801     10802     10801     10803     10801     10804     10752     10753
     10753     10755     10753     10754     10755     10756     10755     10757
     10755     10805     10805     10806     10805     10807     10805     10808
     10808     10809     10808     10810     10808     10811     10811     10812
     10811     10813     10811     10814     10814     10815     10814     10816
     10814     10817     10817     10818     10817     10819     10817     10820
     10820     10821     10820     10822     10820     10823     10823     10824
     10823     10825     10823     10826     10826     10827     10826     10828
     10826     10829     10829     10830     10829     10831     10829     10832
     10832     10833     10832     10834     10832     10835     10835     10836
     10835     10837     10835     10838     10838     10839     10838     10840
     10838     10841     10841     10842     10841     10843     10841     10844
     10844     10845     10844     10846     10844     10847     10847     10848
     10847     10849     10847     10850     10850     10851     10850     10852
     10850     10853     10854     10858     10854     10862     10854     10866
     10858     10859     10858     10860     10858     10861     10862     10863
     10862     10864     10862     10865     10866     10867     10866     10868
     10866     10869     10854     10855     10855     10856     10855     10857
     10855     10870     10870     10871     10870     10872     10870     10876
     10877     10878     10876     10873     10873     10877     10873     10874
     10873     10875     10878     10879     10878     10880     10878     10881
     10881     10882     10881     10889     10881     10883     10889     10890
     10889     10891     10889     10892     10883     10884     10884     10886
     10884     10885     10886     10887     10886     10888     10886     10898
     10898     10899     10898     10900     10898     10901     10901     10902
     10901     10903     10901     10904     10904     10905     10904     10906
     10906     10907     10906     10908     10908     10909     10908     10910
     10908     10911     10911     10912     10911     10913     10913     10914
     10913     10915     10915     10916     10915     10917     10915     10918
     10918     10919     10918     10920     10920     10921     10920     10922
     10922     10923     10922     10924     10922     10925     10925     10926
     10925     10927     10927     10928     10927     10929     10929     10930
     10929     10931     10929     10932     10932     10933     10932     10934
     10932     10935     10935     10936     10935     10937     10935     10938
     10938     10939     10938     10940     10938     10941     10941     10942
     10941     10943     10941     10944     10892     10893     10893     10895
     10893     10894     10895     10896     10895     10897     10895     10945
     10945     10946     10945     10947     10945     10948     10948     10949
     10948     10950     10948     10951     10951     10952     10951     10953
     10951     10954     10954     10955     10954     10956     10954     10957
     10957     10958     10957     10959     10957     10960     10960     10961
     10960     10962     10960     10963     10963     10964     10963     10965
     10963     10966     10966     10967     10966     10968     10966     10969
     10969     10970     10969     10971     10969     10972     10972     10973
     10972     10974     10972     10975     10975     10976     10975     10977
     10975     10978     10978     10979     10978     10980     10978     10981
     10981     10982     10981     10983     10981     10984     10984     10985
     10984     10986     10984     10987     10987     10988     10987     10989
     10987     10990     10990     10991     10990     10992     10990     10993
     10994     10995     10994     10996     10994     10997     10994     10998
     11002     11000     11000     10998     11000     11001     10998     10999
     10998     11003     11011     11010     11003     11004     11003     11005
     11003     11009     11009     11006     11006     11010     11006     11007
     11006     11008     11011     11012     11011     11013     11011     11014
     11014     11015     11014     11022     11014     11016     11022     11023
     11022     11024     11022     11025     11016     11017     11017     11019
     11017     11018     11019     11020     11019     11021     11019     11031
     11031     11032     11031     11033     11031     11034     11034     11035
     11034     11036     11034     11037     11037     11038     11037     11039
     11039     11040     11039     11041     11041     11042     11041     11043
     11041     11044     11044     11045     11044     11046     11046     11047
     11046     11048     11048     11049     11048     11050     11048     11051
     11051     11052     11051     11053     11053     11054     11053     11055
     11055     11056     11055     11057     11055     11058     11058     11059
     11058     11060     11060     11061     11060     11062     11062     11063
     11062     11064     11062     11065     11065     11066     11065     11067
     11065     11068     11068     11069     11068     11070     11068     11071
     11071     11072     11071     11073     11071     11074     11074     11075
     11074     11076     11074     11077     11025     11026     11026     11028
     11026     11027     11028     11029     11028     11030     11028     11078
     11078     11079     11078     11080     11078     11081     11081     11082
     11081     11083     11081     11084     11084     11085     11084     11086
     11084     11087     11087     11088     11087     11089     11087     11090
     11090     11091     11090     11092     11090     11093     11093     11094
     11093     11095     11093     11096     11096     11097     11096     11098
     11096     11099     11099     11100     11099     11101     11099     11102
     11102     11103     11102     11104     11102     11105     11105     11106
     11105     11107     11105     11108     11108     11109     11108     11110
     11108     11111     11111     11112     11111     11113     11111     11114
     11114     11115     11114     11116     11114     11117     11117     11118
     11117     11119     11117     11120     11120     11121     11120     11122
     11120     11123     11123     11124     11123     11125     11123     11126
     11127     11129     11127     11128     11129     11130     11127     11173
     11173     11174     11173     11175     11173     11170     11170     11171
     11170     11172     11127     11131     11131     11132     11131     11133
     11131     11134     11134     11165     11165     11170     11165     11166
     11166     11167     11166     11168     11166     11169     11134     11135
     11135     11136     11135     11137     11137     11138     11137     11139
     11137     11140     11140     11141     11140     11163     11163     11164
     11163     11165     11140     11142     11142     11143     11142     11152
     11152     11157     11157     11158     11157     11159     11157     11160
     11160     11161     11160     11162     11160     11163     11152     11153
     11153     11154     11153     11155     11153     11156     11142     11144
     11144     11145     11144     11146     11144     11147     11147     11148
     11147     11149     11147     11150     11150     11151     11150     11152
     11150     11176     11176     11177     11176     11178     11178     11179
     11178     11180     11178     11181     11176     11182     11182     11183
     11182     11184     11182     11185     11185     11186     11185     11187
     11185     11188     11188     11189     11188     11190     11188     11191
     11191     11192     11191     11193     11193     11194     11193     11195
     11193     11196     11191     11197     11197     11198     11197     11199
     11197     11200     11276     11277     11276     11278     11276     11279
     11276     11273     11273     11274     11273     11275     11273     11270
     11270     11271     11270     11272     11270     11267     11267     11268
     11267     11269     11267     11264     11264     11265     11264     11266
     11264     11261     11261     11262     11261     11263     11261     11258
     11258     11259     11258     11260     11258     11255     11255     11256
     11255     11257     11255     11252     11252     11253     11252     11254
     11252     11249     11249     11250     11249     11251     11249     11246
     11246     11247     11246     11248     11246     11243     11243     11244
     11243     11245     11243     11240     11240     11241     11240     11242
     11240     11238     11238     11239     11236     11237     11236     11232
     11232     11233     11232     11234     11234     11235     11232     11230
     11230     11231     11230     11225     11225     11226     11225     11227
     11225     11223     11223     11220     11224     11220     11221     11220
     11222     11220     11224     11217     11217     11218     11217     11219
     11217     11214     11214     11215     11214     11216     11214     11201
     11201     11210     11201     11206     11201     11202     11210     11211
     11210     11212     11210     11213     11206     11207     11206     11208
     11206     11209     11202     11203     11202     11204     11202     11205
     11230     11228     11228     11229     11228     11280     11280     11282
     11282     11283     11282     11284     11282     11285     11285     11286
     11285     11287     11285     11288     11288     11289     11288     11290
     11288     11291     11291     11292     11291     11293     11291     11294
     11294     11295     11294     11296     11294     11297     11297     11298
     11297     11299     11297     11300     11300     11301     11300     11302
     11300     11303     11303     11304     11305     11306     11305     11307
     11307     11308     11307     11309     11307     11310     11310     11311
     11310     11312     11310     11313     11313     11314     11313     11315
     11313     11316     11316     11317     11316     11318     11316     11319
     11319     11320     11319     11321     11319     11322     11322     11323
     11322     11324     11322     11325     11325     11326     11325     11327
     11325     11328     11328     11329     11328     11330     11328     11331
     11236     11238     11303     11305     11280     11281     11332     11333
     11332     11334     11332     11335     11332     11336     11340     11338
     11338     11336     11338     11339     11336     11337     11336     11341
     11349     11348     11341     11342     11341     11343     11341     11347
     11347     11344     11344     11348     11344     11345     11344     11346
     11349     11350     11349     11351     11349     11352     11352     11353
     11352     11360     11352     11354     11360     11361     11360     11362
     11360     11363     11354     11355     11355     11357     11355     11356
     11357     11358     11357     11359     11357     11369     11369     11370
     11369     11371     11369     11372     11372     11373     11372     11374
     11372     11375     11375     11376     11375     11377     11377     11378
     11377     11379     11379     11380     11379     11381     11379     11382
     11382     11383     11382     11384     11384     11385     11384     11386
     11386     11387     11386     11388     11386     11389     11389     11390
     11389     11391     11391     11392     11391     11393     11393     11394
     11393     11395     11393     11396     11396     11397     11396     11398
     11398     11399     11398     11400     11400     11401     11400     11402
     11400     11403     11403     11404     11403     11405     11403     11406
     11406     11407     11406     11408     11406     11409     11409     11410
     11409     11411     11409     11412     11412     11413     11412     11414
     11412     11415     11363     11364     11364     11366     11364     11365
     11366     11367     11366     11368     11366     11416     11416     11417
     11416     11418     11416     11419     11419     11420     11419     11421
     11419     11422     11422     11423     11422     11424     11422     11425
     11425     11426     11425     11427     11425     11428     11428     11429
     11428     11430     11428     11431     11431     11432     11431     11433
     11431     11434     11434     11435     11434     11436     11434     11437
     11437     11438     11437     11439     11437     11440     11440     11441
     11440     11442     11440     11443     11443     11444     11443     11445
     11443     11446     11446     11447     11446     11448     11446     11449
     11449     11450     11449     11451     11449     11452     11452     11453
     11452     11454     11452     11455     11455     11456     11455     11457
     11455     11458     11458     11459     11458     11460     11458     11461
     11461     11462     11461     11463     11461     11464     11465     11466
     11465     11467     11465     11468     11465     11469     11469     11470
     11469     11471     11469     11472     11472     11473     11472     11474
     11472     11478     11480     11479     11478     11475     11475     11479
     11475     11476     11475     11477     11480     11481     11480     11482
     11480     11483     11483     11484     11483     11491     11483     11485
     11491     11492     11491     11493     11491     11494     11485     11486
     11486     11488     11486     11487     11488     11489     11488     11490
     11488     11500     11500     11501     11500     11502     11500     11503
     11503     11504     11503     11505     11503     11506     11506     11507
     11506     11508     11506     11509     11509     11510     11509     11511
     11509     11512     11512     11513     11512     11514     11512     11515
     11515     11516     11515     11517     11515     11518     11518     11519
     11518     11520     11520     11521     11520     11522     11522     11523
     11522     11524     11522     11525     11525     11526     11525     11527
     11525     11528     11528     11529     11528     11530     11528     11531
     11531     11532     11531     11533     11531     11534     11534     11535
     11534     11536     11534     11537     11537     11538     11537     11539
     11537     11540     11540     11541     11540     11542     11540     11543
     11543     11544     11543     11545     11543     11546     11494     11495
     11495     11497     11495     11496     11497     11498     11497     11499
     11497     11547     11547     11548     11547     11549     11547     11550
     11550     11551     11550     11552     11550     11553     11553     11554
     11553     11555     11553     11556     11556     11557     11556     11558
     11556     11559     11559     11560     11559     11561     11559     11562
     11562     11563     11562     11564     11562     11565     11565     11566
     11565     11567     11565     11568     11568     11569     11568     11570
     11568     11571     11571     11572     11571     11573     11571     11574
     11574     11575     11574     11576     11574     11577     11577     11578
     11577     11579     11577     11580     11580     11581     11580     11582
     11580     11583     11583     11584     11583     11585     11583     11586
     11586     11587     11586     11588     11586     11589     11589     11590
     11589     11591     11589     11592     11592     11593     11592     11594
     11592     11595     11596     11598     11596     11597     11598     11599
     11596     11642     11642     11643     11642     11644     11642     11639
     11639     11640     11639     11641     11596     11600     11600     11601
     11600     11602     11600     11603     11603     11634     11634     11639
     11634     11635     11635     11636     11635     11637     11635     11638
     11603     11604     11604     11605     11604     11606     11606     11607
     11606     11608     11606     11609     11609     11610     11609     11632
     11632     11633     11632     11634     11609     11611     11611     11612
     11611     11621     11621     11626     11626     11627     11626     11628
     11626     11629     11629     11630     11629     11631     11629     11632
     11621     11622     11622     11623     11622     11624     11622     11625
     11611     11613     11613     11614     11613     11615     11613     11616
     11616     11617     11616     11618     11616     11619     11619     11620
     11619     11621     11619     11645     11645     11646     11645     11647
     11647     11648     11647     11649     11647     11650     11645     11651
     11651     11652     11651     11653     11651     11654     11654     11655
     11654     11656     11654     11657     11657     11658     11657     11659
     11657     11660     11660     11661     11660     11662     11662     11663
     11662     11664     11662     11665     11660     11666     11666     11667
     11666     11668     11666     11669     11670     11672     11670     11671
     11672     11673     11670     11716     11716     11717     11716     11718
     11716     11713     11713     11714     11713     11715     11670     11674
     11674     11675     11674     11676     11674     11677     11677     11708
     11708     11713     11708     11709     11709     11710     11709     11711
     11709     11712     11677     11678     11678     11679     11678     11680
     11680     11681     11680     11682     11680     11683     11683     11684
     11683     11706     11706     11707     11706     11708     11683     11685
     11685     11686     11685     11695     11695     11700     11700     11701
     11700     11702     11700     11703     11703     11704     11703     11705
     11703     11706     11695     11696     11696     11697     11696     11698
     11696     11699     11685     11687     11687     11688     11687     11689
     11687     11690     11690     11691     11690     11692     11690     11693
     11693     11694     11693     11695     11693     11719     11719     11720
     11719     11721     11721     11722     11721     11723     11721     11724
     11719     11725     11725     11726     11725     11727     11725     11728
     11728     11729     11728     11730     11728     11731     11731     11732
     11731     11733     11731     11734     11734     11735     11734     11736
     11736     11737     11736     11738     11736     11739     11734     11740
     11740     11741     11740     11742     11740     11743     11764     11765
     11764     11760     11764     11744     11764     11769     11744     11745
     11744     11746     11746     11747     11744     11748     11748     11749
     11748     11750     11750     11751     11748     11752     11752     11753
     11752     11754     11754     11755     11752     11756     11756     11757
     11756     11760     11760     11761     11760     11762     11762     11763
     11756     11758     11758     11759     11769     11766     11766     11770
     11766     11767     11766     11768     11770     11771     11771     11772
     11771     11773     11771     11774     11774     11775     11774     11782
     11774     11776     11782     11783     11782     11784     11782     11785
     11776     11777     11777     11779     11777     11778     11779     11780
     11779     11781     11779     11791     11791     11792     11791     11793
     11791     11794     11794     11795     11794     11796     11794     11797
     11797     11798     11797     11799     11799     11800     11799     11801
     11801     11802     11801     11803     11801     11804     11804     11805
     11804     11806     11806     11807     11806     11808     11808     11809
     11808     11810     11808     11811     11811     11812     11811     11813
     11813     11814     11813     11815     11815     11816     11815     11817
     11815     11818     11818     11819     11818     11820     11820     11821
     11820     11822     11822     11823     11822     11824     11822     11825
     11825     11826     11825     11827     11825     11828     11828     11829
     11828     11830     11828     11831     11831     11832     11831     11833
     11831     11834     11834     11835     11834     11836     11834     11837
     11785     11786     11786     11788     11786     11787     11788     11789
     11788     11790     11788     11838     11838     11839     11838     11840
     11838     11841     11841     11842     11841     11843     11841     11844
     11844     11845     11844     11846     11844     11847     11847     11848
     11847     11849     11847     11850     11850     11851     11850     11852
     11850     11853     11853     11854     11853     11855     11853     11856
     11856     11857     11856     11858     11856     11859     11859     11860
     11859     11861     11859     11862     11862     11863     11862     11864
     11862     11865     11865     11866     11865     11867     11865     11868
     11868     11869     11868     11870     11868     11871     11871     11872
     11871     11873     11871     11874     11874     11875     11874     11876
     11874     11877     11877     11878     11877     11879     11877     11880
     11880     11881     11880     11882     11880     11883     11883     11884
     11883     11885     11883     11886     11887     11888     11887     11889
     11887     11890     11887     11891     11895     11893     11893     11891
     11893     11894     11891     11892     11891     11896     11904     11903
     11896     11897     11896     11898     11896     11902     11902     11899
     11899     11903     11899     11900     11899     11901     11904     11905
     11904     11906     11904     11907     11907     11908     11907     11915
     11907     11909     11915     11916     11915     11917     11915     11918
     11909     11910     11910     11912     11910     11911     11912     11913
     11912     11914     11912     11924     11924     11925     11924     11926
     11924     11927     11927     11928     11927     11929     11927     11930
     11930     11931     11930     11932     11932     11933     11932     11934
     11934     11935     11934     11936     11934     11937     11937     11938
     11937     11939     11939     11940     11939     11941     11941     11942
     11941     11943     11941     11944     11944     11945     11944     11946
     11946     11947     11946     11948     11948     11949     11948     11950
     11948     11951     11951     11952     11951     11953     11953     11954
     11953     11955     11955     11956     11955     11957     11955     11958
     11958     11959     11958     11960     11958     11961     11961     11962
     11961     11963     11961     11964     11964     11965     11964     11966
     11964     11967     11967     11968     11967     11969     11967     11970
     11918     11919     11919     11921     11919     11920     11921     11922
     11921     11923     11921     11971     11971     11972     11971     11973
     11971     11974     11974     11975     11974     11976     11974     11977
     11977     11978     11977     11979     11977     11980     11980     11981
     11980     11982     11980     11983     11983     11984     11983     11985
     11983     11986     11986     11987     11986     11988     11986     11989
     11989     11990     11989     11991     11989     11992     11992     11993
     11992     11994     11992     11995     11995     11996     11995     11997
     11995     11998     11998     11999     11998     12000     11998     12001
     12001     12002     12001     12003     12001     12004     12004     12005
     12004     12006     12004     12007     12007     12008     12007     12009
     12007     12010     12010     12011     12010     12012     12010     12013
     12013     12014     12013     12015     12013     12016     12016     12017
     12016     12018     12016     12019     12095     12096     12095     12097
     12095     12098     12095     12092     12092     12093     12092     12094
     12092     12089     12089     12090     12089     12091     12089     12086
     12086     12087     12086     12088     12086     12083     12083     12084
     12083     12085     12083     12080     12080     12081     12080     12082
     12080     12077     12077     12078     12077     12079     12077     12074
     12074     12075     12074     12076     12074     12071     12071     12072
     12071     12073     12071     12068     12068     12069     12068     12070
     12068     12065     12065     12066     12065     12067     12065     12062
     12062     12063     12062     12064     12062     12059     12059     12060
     12059     12061     12059     12057     12057     12058     12055     12056
     12055     12051     12051     12052     12051     12053     12053     12054
     12051     12049     12049     12050     12049     12044     12044     12045
     12044     12046     12044     12042     12042     12039     12043     12039
     12040     12039     12041     12039     12043     12036     12036     12037
     12036     12038     12036     12033     12033     12034     12033     12035
     12033     12020     12020     12029     12020     12025     12020     12021
     12029     12030     12029     12031     12029     12032     12025     12026
     12025     12027     12025     12028     12021     12022     12021     12023
     12021     12024     12049     12047     12047     12048     12047     12099
     12099     12101     12101     12102     12101     12103     12101     12104
     12104     12105     12104     12106     12104     12107     12107     12108
     12107     12109     12107     12110     12110     12111     12110     12112
     12110     12113     12113     12114     12113     12115     12113     12116
     12116     12117     12116     12118     12116     12119     12119     12120
     12119     12121     12119     12122     12122     12123     12124     12125
     12124     12126     12126     12127     12126     12128     12126     12129
     12129     12130     12129     12131     12129     12132     12132     12133
     12132     12134     12132     12135     12135     12136     12135     12137
     12135     12138     12138     12139     12138     12140     12138     12141
     12141     12142     12141     12143     12141     12144     12144     12145
     12144     12146     12144     12147     12147     12148     12147     12149
     12147     12150     12055     12057     12122     12124     12099     12100
     12151     12152     12151     12153     12151     12154     12151     12155
     12155     12156     12155     12157     12155     12158     12158     12159
     12158     12160     12158     12164     12166     12165     12164     12161
     12161     12165     12161     12162     12161     12163     12166     12167
     12166     12168     12166     12169     12169     12170     12169     12177
     12169     12171     12177     12178     12177     12179     12177     12180
     12171     12172     12172     12174     12172     12173     12174     12175
     12174     12176     12174     12186     12186     12187     12186     12188
     12186     12189     12189     12190     12189     12191     12189     12192
     12192     12193     12192     12194     12192     12195     12195     12196
     12195     12197     12195     12198     12198     12199     12198     12200
     12198     12201     12201     12202     12201     12203     12201     12204
     12204     12205     12204     12206     12206     12207     12206     12208
     12208     12209     12208     12210     12208     12211     12211     12212
     12211     12213     12211     12214     12214     12215     12214     12216
     12214     12217     12217     12218     12217     12219     12217     12220
     12220     12221     12220     12222     12220     12223     12223     12224
     12223     12225     12223     12226     12226     12227     12226     12228
     12226     12229     12229     12230     12229     12231     12229     12232
     12180     12181     12181     12183     12181     12182     12183     12184
     12183     12185     12183     12233     12233     12234     12233     12235
     12233     12236     12236     12237     12236     12238     12236     12239
     12239     12240     12239     12241     12239     12242     12242     12243
     12242     12244     12242     12245     12245     12246     12245     12247
     12245     12248     12248     12249     12248     12250     12248     12251
     12251     12252     12251     12253     12251     12254     12254     12255
     12254     12256     12254     12257     12257     12258     12257     12259
     12257     12260     12260     12261     12260     12262     12260     12263
     12263     12264     12263     12265     12263     12266     12266     12267
     12266     12268     12266     12269     12269     12270     12269     12271
     12269     12272     12272     12273     12272     12274     12272     12275
     12275     12276     12275     12277     12275     12278     12278     12279
     12278     12280     12278     12281     12357     12358     12357     12359
     12357     12360     12357     12354     12354     12355     12354     12356
     12354     12351     12351     12352     12351     12353     12351     12348
     12348     12349     12348     12350     12348     12345     12345     12346
     12345     12347     12345     12342     12342     12343     12342     12344
     12342     12339     12339     12340     12339     12341     12339     12336
     12336     12337     12336     12338     12336     12333     12333     12334
     12333     12335     12333     12330     12330     12331     12330     12332
     12330     12327     12327     12328     12327     12329     12327     12324
     12324     12325     12324     12326     12324     12321     12321     12322
     12321     12323     12321     12319     12319     12320     12317     12318
     12317     12313     12313     12314     12313     12315     12315     12316
     12313     12311     12311     12312     12311     12306     12306     12307
     12306     12308     12306     12304     12304     12301     12305     12301
     12302     12301     12303     12301     12305     12298     12298     12299
     12298     12300     12298     12295     12295     12296     12295     12297
     12295     12282     12282     12291     12282     12287     12282     12283
     12291     12292     12291     12293     12291     12294     12287     12288
     12287     12289     12287     12290     12283     12284     12283     12285
     12283     12286     12311     12309     12309     12310     12309     12361
     12361     12363     12363     12364     12363     12365     12363     12366
     12366     12367     12366     12368     12366     12369     12369     12370
     12369     12371     12369     12372     12372     12373     12372     12374
     12372     12375     12375     12376     12375     12377     12375     12378
     12378     12379     12378     12380     12378     12381     12381     12382
     12381     12383     12381     12384     12384     12385     12386     12387
     12386     12388     12388     12389     12388     12390     12388     12391
     12391     12392     12391     12393     12391     12394     12394     12395
     12394     12396     12394     12397     12397     12398     12397     12399
     12397     12400     12400     12401     12400     12402     12400     12403
     12403     12404     12403     12405     12403     12406     12406     12407
     12406     12408     12406     12409     12409     12410     12409     12411
     12409     12412     12317     12319     12384     12386     12361     12362
     12413     12414     12413     12418     12413     12422     12414     12415
     12414     12416     12414     12417     12418     12419     12418     12420
     12418     12421     12422     12423     12422     12424     12422     12425
     12413     12426     12426     12427     12426     12428     12426     12429
     12429     12430     12429     12431     12429     12435     12436     12437
     12435     12432     12432     12436     12432     12433     12432     12434
     12437     12438     12437     12439     12437     12440     12440     12441
     12440     12448     12440     12442     12448     12449     12448     12450
     12448     12451     12442     12443     12443     12445     12443     12444
     12445     12446     12445     12447     12445     12457     12457     12458
     12457     12459     12457     12460     12460     12461     12460     12462
     12460     12463     12463     12464     12463     12465     12463     12466
     12466     12467     12466     12468     12466     12469     12469     12470
     12469     12471     12469     12472     12472     12473     12472     12474
     12472     12475     12475     12476     12475     12477     12477     12478
     12477     12479     12479     12480     12479     12481     12479     12482
     12482     12483     12482     12484     12484     12485     12484     12486
     12486     12487     12486     12488     12486     12489     12489     12490
     12489     12491     12489     12492     12492     12493     12492     12494
     12492     12495     12495     12496     12495     12497     12495     12498
     12498     12499     12498     12500     12498     12501     12451     12452
     12452     12454     12452     12453     12454     12455     12454     12456
     12454     12502     12502     12503     12502     12504     12502     12505
     12505     12506     12505     12507     12505     12508     12508     12509
     12508     12510     12508     12511     12511     12512     12511     12513
     12511     12514     12514     12515     12514     12516     12514     12517
     12517     12518     12517     12519     12517     12520     12520     12521
     12520     12522     12520     12523     12523     12524     12523     12525
     12523     12526     12526     12527     12526     12528     12526     12529
     12529     12530     12529     12531     12529     12532     12532     12533
     12532     12534     12532     12535     12535     12536     12535     12537
     12535     12538     12538     12539     12538     12540     12538     12541
     12541     12542     12541     12543     12541     12544     12544     12545
     12544     12546     12544     12547     12547     12548     12547     12549
     12547     12550     12551     12555     12551     12559     12551     12563
     12555     12556     12555     12557     12555     12558     12559     12560
     12559     12561     12559     12562     12563     12564     12563     12565
     12563     12566     12551     12552     12552     12553     12552     12554
     12552     12567     12567     12568     12567     12569     12567     12573
     12574     12575     12573     12570     12570     12574     12570     12571
     12570     12572     12575     12576     12575     12577     12575     12578
     12578     12579     12578     12586     12578     12580     12586     12587
     12586     12588     12586     12589     12580     12581     12581     12583
     12581     12582     12583     12584     12583     12585     12583     12595
     12595     12596     12595     12597     12595     12598     12598     12599
     12598     12600     12598     12601     12601     12602     12601     12603
     12603     12604     12603     12605     12605     12606     12605     12607
     12605     12608     12608     12609     12608     12610     12610     12611
     12610     12612     12612     12613     12612     12614     12612     12615
     12615     12616     12615     12617     12617     12618     12617     12619
     12619     12620     12619     12621     12619     12622     12622     12623
     12622     12624     12624     12625     12624     12626     12626     12627
     12626     12628     12626     12629     12629     12630     12629     12631
     12629     12632     12632     12633     12632     12634     12632     12635
     12635     12636     12635     12637     12635     12638     12638     12639
     12638     12640     12638     12641     12589     12590     12590     12592
     12590     12591     12592     12593     12592     12594     12592     12642
     12642     12643     12642     12644     12642     12645     12645     12646
     12645     12647     12645     12648     12648     12649     12648     12650
     12648     12651     12651     12652     12651     12653     12651     12654
     12654     12655     12654     12656     12654     12657     12657     12658
     12657     12659     12657     12660     12660     12661     12660     12662
     12660     12663     12663     12664     12663     12665     12663     12666
     12666     12667     12666     12668     12666     12669     12669     12670
     12669     12671     12669     12672     12672     12673     12672     12674
     12672     12675     12675     12676     12675     12677     12675     12678
     12678     12679     12678     12680     12678     12681     12681     12682
     12681     12683     12681     12684     12684     12685     12684     12686
     12684     12687     12687     12688     12687     12689     12687     12690
     12691     12693     12691     12692     12693     12694     12691     12737
     12737     12738     12737     12739     12737     12734     12734     12735
     12734     12736     12691     12695     12695     12696     12695     12697
     12695     12698     12698     12729     12729     12734     12729     12730
     12730     12731     12730     12732     12730     12733     12698     12699
     12699     12700     12699     12701     12701     12702     12701     12703
     12701     12704     12704     12705     12704     12727     12727     12728
     12727     12729     12704     12706     12706     12707     12706     12716
     12716     12721     12721     12722     12721     12723     12721     12724
     12724     12725     12724     12726     12724     12727     12716     12717
     12717     12718     12717     12719     12717     12720     12706     12708
     12708     12709     12708     12710     12708     12711     12711     12712
     12711     12713     12711     12714     12714     12715     12714     12716
     12714     12740     12740     12741     12740     12742     12742     12743
     12742     12744     12742     12745     12740     12746     12746     12747
     12746     12748     12746     12749     12749     12750     12749     12751
     12749     12752     12752     12753     12752     12754     12752     12755
     12755     12756     12755     12757     12757     12758     12757     12759
     12757     12760     12755     12761     12761     12762     12761     12763
     12761     12764     12765     12767     12765     12766     12767     12768
     12765     12811     12811     12812     12811     12813     12811     12808
     12808     12809     12808     12810     12765     12769     12769     12770
     12769     12771     12769     12772     12772     12803     12803     12808
     12803     12804     12804     12805     12804     12806     12804     12807
     12772     12773     12773     12774     12773     12775     12775     12776
     12775     12777     12775     12778     12778     12779     12778     12801
     12801     12802     12801     12803     12778     12780     12780     12781
     12780     12790     12790     12795     12795     12796     12795     12797
     12795     12798     12798     12799     12798     12800     12798     12801
     12790     12791     12791     12792     12791     12793     12791     12794
     12780     12782     12782     12783     12782     12784     12782     12785
     12785     12786     12785     12787     12785     12788     12788     12789
     12788     12790     12788     12814     12814     12815     12814     12816
     12816     12817     12816     12818     12816     12819     12814     12820
     12820     12821     12820     12822     12820     12823     12823     12824
     12823     12825     12823     12826     12826     12827     12826     12828
     12826     12829     12829     12830     12829     12831     12831     12832
     12831     12833     12831     12834     12829     12835     12835     12836
     12835     12837     12835     12838     12839     12840     12839     12841
     12839     12842     12839     12843     12843     12844     12843     12845
     12843     12846     12846     12847     12846     12848     12846     12852
     12854     12853     12852     12849     12849     12853     12849     12850
     12849     12851     12854     12855     12854     12856     12854     12857
     12857     12858     12857     12865     12857     12859     12865     12866
     12865     12867     12865     12868     12859     12860     12860     12862
     12860     12861     12862     12863     12862     12864     12862     12874
     12874     12875     12874     12876     12874     12877     12877     12878
     12877     12879     12877     12880     12880     12881     12880     12882
     12882     12883     12882     12884     12884     12885     12884     12886
     12884     12887     12887     12888     12887     12889     12889     12890
     12889     12891     12891     12892     12891     12893     12891     12894
     12894     12895     12894     12896     12896     12897     12896     12898
     12898     12899     12898     12900     12898     12901     12901     12902
     12901     12903     12903     12904     12903     12905     12905     12906
     12905     12907     12905     12908     12908     12909     12908     12910
     12908     12911     12911     12912     12911     12913     12911     12914
     12914     12915     12914     12916     12914     12917     12917     12918
     12917     12919     12917     12920     12868     12869     12869     12871
     12869     12870     12871     12872     12871     12873     12871     12921
     12921     12922     12921     12923     12921     12924     12924     12925
     12924     12926     12924     12927     12927     12928     12927     12929
     12927     12930     12930     12931     12930     12932     12930     12933
     12933     12934     12933     12935     12933     12936     12936     12937
     12936     12938     12936     12939     12939     12940     12939     12941
     12939     12942     12942     12943     12942     12944     12942     12945
     12945     12946     12945     12947     12945     12948     12948     12949
     12948     12950     12948     12951     12951     12952     12951     12953
     12951     12954     12954     12955     12954     12956     12954     12957
     12957     12958     12957     12959     12957     12960     12960     12961
     12960     12962     12960     12963     12963     12964     12963     12965
     12963     12966     12966     12967     12966     12968     12966     12969
     12970     12974     12970     12978     12970     12982     12974     12975
     12974     12976     12974     12977     12978     12979     12978     12980
     12978     12981     12982     12983     12982     12984     12982     12985
     12970     12971     12971     12972     12971     12973     12971     12986
     12986     12987     12986     12988     12986     12992     12993     12994
     12992     12989     12989     12993     12989     12990     12989     12991
     12994     12995     12994     12996     12994     12997     12997     12998
     12997     13005     12997     12999     13005     13006     13005     13007
     13005     13008     12999     13000     13000     13002     13000     13001
     13002     13003     13002     13004     13002     13014     13014     13015
     13014     13016     13014     13017     13017     13018     13017     13019
     13017     13020     13020     13021     13020     13022     13022     13023
     13022     13024     13024     13025     13024     13026     13024     13027
     13027     13028     13027     13029     13029     13030     13029     13031
     13031     13032     13031     13033     13031     13034     13034     13035
     13034     13036     13036     13037     13036     13038     13038     13039
     13038     13040     13038     13041     13041     13042     13041     13043
     13043     13044     13043     13045     13045     13046     13045     13047
     13045     13048     13048     13049     13048     13050     13048     13051
     13051     13052     13051     13053     13051     13054     13054     13055
     13054     13056     13054     13057     13057     13058     13057     13059
     13057     13060     13008     13009     13009     13011     13009     13010
     13011     13012     13011     13013     13011     13061     13061     13062
     13061     13063     13061     13064     13064     13065     13064     13066
     13064     13067     13067     13068     13067     13069     13067     13070
     13070     13071     13070     13072     13070     13073     13073     13074
     13073     13075     13073     13076     13076     13077     13076     13078
     13076     13079     13079     13080     13079     13081     13079     13082
     13082     13083     13082     13084     13082     13085     13085     13086
     13085     13087     13085     13088     13088     13089     13088     13090
     13088     13091     13091     13092     13091     13093     13091     13094
     13094     13095     13094     13096     13094     13097     13097     13098
     13097     13099     13097     13100     13100     13101     13100     13102
     13100     13103     13103     13104     13103     13105     13103     13106
     13106     13107     13106     13108     13106     13109     13110     13111
     13110     13115     13110     13119     13111     13112     13111     13113
     13111     13114     13115     13116     13115     13117     13115     13118
     13119     13120     13119     13121     13119     13122     13110     13123
     13123     13124     13123     13125     13123     13126     13126     13127
     13126     13128     13126     13132     13133     13134     13132     13129
     13129     13133     13129     13130     13129     13131     13134     13135
     13134     13136     13134     13137     13137     13138     13137     13145
     13137     13139     13145     13146     13145     13147     13145     13148
     13139     13140     13140     13142     13140     13141     13142     13143
     13142     13144     13142     13154     13154     13155     13154     13156
     13154     13157     13157     13158     13157     13159     13157     13160
     13160     13161     13160     13162     13160     13163     13163     13164
     13163     13165     13163     13166     13166     13167     13166     13168
     13166     13169     13169     13170     13169     13171     13169     13172
     13172     13173     13172     13174     13174     13175     13174     13176
     13176     13177     13176     13178     13176     13179     13179     13180
     13179     13181     13181     13182     13181     13183     13183     13184
     13183     13185     13183     13186     13186     13187     13186     13188
     13186     13189     13189     13190     13189     13191     13189     13192
     13192     13193     13192     13194     13192     13195     13195     13196
     13195     13197     13195     13198     13148     13149     13149     13151
     13149     13150     13151     13152     13151     13153     13151     13199
     13199     13200     13199     13201     13199     13202     13202     13203
     13202     13204     13202     13205     13205     13206     13205     13207
     13205     13208     13208     13209     13208     13210     13208     13211
     13211     13212     13211     13213     13211     13214     13214     13215
     13214     13216     13214     13217     13217     13218     13217     13219
     13217     13220     13220     13221     13220     13222     13220     13223
     13223     13224     13223     13225     13223     13226     13226     13227
     13226     13228     13226     13229     13229     13230     13229     13231
     13229     13232     13232     13233     13232     13234     13232     13235
     13235     13236     13235     13237     13235     13238     13238     13239
     13238     13240     13238     13241     13241     13242     13241     13243
     13241     13244     13244     13245     13244     13246     13244     13247
     13248     13249     13248     13250     13248     13251     13248     13252
     13256     13254     13254     13252     13254     13255     13252     13253
     13252     13257     13265     13264     13257     13258     13257     13259
     13257     13263     13263     13260     13260     13264     13260     13261
     13260     13262     13265     13266     13265     13267     13265     13268
     13268     13269     13268     13276     13268     13270     13276     13277
     13276     13278     13276     13279     13270     13271     13271     13273
     13271     13272     13273     13274     13273     13275     13273     13285
     13285     13286     13285     13287     13285     13288     13288     13289
     13288     13290     13288     13291     13291     13292     13291     13293
     13293     13294     13293     13295     13295     13296     13295     13297
     13295     13298     13298     13299     13298     13300     13300     13301
     13300     13302     13302     13303     13302     13304     13302     13305
     13305     13306     13305     13307     13307     13308     13307     13309
     13309     13310     13309     13311     13309     13312     13312     13313
     13312     13314     13314     13315     13314     13316     13316     13317
     13316     13318     13316     13319     13319     13320     13319     13321
     13319     13322     13322     13323     13322     13324     13322     13325
     13325     13326     13325     13327     13325     13328     13328     13329
     13328     13330     13328     13331     13279     13280     13280     13282
     13280     13281     13282     13283     13282     13284     13282     13332
     13332     13333     13332     13334     13332     13335     13335     13336
     13335     13337     13335     13338     13338     13339     13338     13340
     13338     13341     13341     13342     13341     13343     13341     13344
     13344     13345     13344     13346     13344     13347     13347     13348
     13347     13349     13347     13350     13350     13351     13350     13352
     13350     13353     13353     13354     13353     13355     13353     13356
     13356     13357     13356     13358     13356     13359     13359     13360
     13359     13361     13359     13362     13362     13363     13362     13364
     13362     13365     13365     13366     13365     13367     13365     13368
     13368     13369     13368     13370     13368     13371     13371     13372
     13371     13373     13371     13374     13374     13375     13374     13376
     13374     13377     13377     13378     13377     13379     13377     13380
     13381     13382     13381     13383     13381     13384     13381     13385
     13385     13386     13385     13387     13385     13388     13388     13389
     13388     13390     13388     13394     13396     13395     13394     13391
     13391     13395     13391     13392     13391     13393     13396     13397
     13396     13398     13396     13399     13399     13400     13399     13407
     13399     13401     13407     13408     13407     13409     13407     13410
     13401     13402     13402     13404     13402     13403     13404     13405
     13404     13406     13404     13416     13416     13417     13416     13418
     13416     13419     13419     13420     13419     13421     13419     13422
     13422     13423     13422     13424     13422     13425     13425     13426
     13425     13427     13425     13428     13428     13429     13428     13430
     13428     13431     13431     13432     13431     13433     13431     13434
     13434     13435     13434     13436     13436     13437     13436     13438
     13438     13439     13438     13440     13438     13441     13441     13442
     13441     13443     13441     13444     13444     13445     13444     13446
     13444     13447     13447     13448     13447     13449     13447     13450
     13450     13451     13450     13452     13450     13453     13453     13454
     13453     13455     13453     13456     13456     13457     13456     13458
     13456     13459     13459     13460     13459     13461     13459     13462
     13410     13411     13411     13413     13411     13412     13413     13414
     13413     13415     13413     13463     13463     13464     13463     13465
     13463     13466     13466     13467     13466     13468     13466     13469
     13469     13470     13469     13471     13469     13472     13472     13473
     13472     13474     13472     13475     13475     13476     13475     13477
     13475     13478     13478     13479     13478     13480     13478     13481
     13481     13482     13481     13483     13481     13484     13484     13485
     13484     13486     13484     13487     13487     13488     13487     13489
     13487     13490     13490     13491     13490     13492     13490     13493
     13493     13494     13493     13495     13493     13496     13496     13497
     13496     13498     13496     13499     13499     13500     13499     13501
     13499     13502     13502     13503     13502     13504     13502     13505
     13505     13506     13505     13507     13505     13508     13508     13509
     13508     13510     13508     13511     13587     13588     13587     13589
     13587     13590     13587     13584     13584     13585     13584     13586
     13584     13581     13581     13582     13581     13583     13581     13578
     13578     13579     13578     13580     13578     13575     13575     13576
     13575     13577     13575     13572     13572     13573     13572     13574
     13572     13569     13569     13570     13569     13571     13569     13566
     13566     13567     13566     13568     13566     13563     13563     13564
     13563     13565     13563     13560     13560     13561     13560     13562
     13560     13557     13557     13558     13557     13559     13557     13554
     13554     13555     13554     13556     13554     13551     13551     13552
     13551     13553     13551     13549     13549     13550     13547     13548
     13547     13543     13543     13544     13543     13545     13545     13546
     13543     13541     13541     13542     13541     13536     13536     13537
     13536     13538     13536     13534     13534     13531     13535     13531
     13532     13531     13533     13531     13535     13528     13528     13529
     13528     13530     13528     13525     13525     13526     13525     13527
     13525     13512     13512     13521     13512     13517     13512     13513
     13521     13522     13521     13523     13521     13524     13517     13518
     13517     13519     13517     13520     13513     13514     13513     13515
     13513     13516     13541     13539     13539     13540     13539     13591
     13591     13593     13593     13594     13593     13595     13593     13596
     13596     13597     13596     13598     13596     13599     13599     13600
     13599     13601     13599     13602     13602     13603     13602     13604
     13602     13605     13605     13606     13605     13607     13605     13608
     13608     13609     13608     13610     13608     13611     13611     13612
     13611     13613     13611     13614     13614     13615     13616     13617
     13616     13618     13618     13619     13618     13620     13618     13621
     13621     13622     13621     13623     13621     13624     13624     13625
     13624     13626     13624     13627     13627     13628     13627     13629
     13627     13630     13630     13631     13630     13632     13630     13633
     13633     13634     13633     13635     13633     13636     13636     13637
     13636     13638     13636     13639     13639     13640     13639     13641
     13639     13642     13547     13549     13614     13616     13591     13592
     13718     13719     13718     13720     13718     13721     13718     13715
     13715     13716     13715     13717     13715     13712     13712     13713
     13712     13714     13712     13709     13709     13710     13709     13711
     13709     13706     13706     13707     13706     13708     13706     13703
     13703     13704     13703     13705     13703     13700     13700     13701
     13700     13702     13700     13697     13697     13698     13697     13699
     13697     13694     13694     13695     13694     13696     13694     13691
     13691     13692     13691     13693     13691     13688     13688     13689
     13688     13690     13688     13685     13685     13686     13685     13687
     13685     13682     13682     13683     13682     13684     13682     13680
     13680     13681     13678     13679     13678     13674     13674     13675
     13674     13676     13676     13677     13674     13672     13672     13673
     13672     13667     13667     13668     13667     13669     13667     13665
     13665     13662     13666     13662     13663     13662     13664     13662
     13666     13659     13659     13660     13659     13661     13659     13656
     13656     13657     13656     13658     13656     13643     13643     13652
     13643     13648     13643     13644     13652     13653     13652     13654
     13652     13655     13648     13649     13648     13650     13648     13651
     13644     13645     13644     13646     13644     13647     13672     13670
     13670     13671     13670     13722     13722     13724     13724     13725
     13724     13726     13724     13727     13727     13728     13727     13729
     13727     13730     13730     13731     13730     13732     13730     13733
     13733     13734     13733     13735     13733     13736     13736     13737
     13736     13738     13736     13739     13739     13740     13739     13741
     13739     13742     13742     13743     13742     13744     13742     13745
     13745     13746     13747     13748     13747     13749     13749     13750
     13749     13751     13749     13752     13752     13753     13752     13754
     13752     13755     13755     13756     13755     13757     13755     13758
     13758     13759     13758     13760     13758     13761     13761     13762
     13761     13763     13761     13764     13764     13765     13764     13766
     13764     13767     13767     13768     13767     13769     13767     13770
     13770     13771     13770     13772     13770     13773     13678     13680
     13745     13747     13722     13723     13774     13775     13774     13776
     13774     13777     13774     13778     13782     13780     13780     13778
     13780     13781     13778     13779     13778     13783     13791     13790
     13783     13784     13783     13785     13783     13789     13789     13786
     13786     13790     13786     13787     13786     13788     13791     13792
     13791     13793     13791     13794     13794     13795     13794     13802
     13794     13796     13802     13803     13802     13804     13802     13805
     13796     13797     13797     13799     13797     13798     13799     13800
     13799     13801     13799     13811     13811     13812     13811     13813
     13811     13814     13814     13815     13814     13816     13814     13817
     13817     13818     13817     13819     13819     13820     13819     13821
     13821     13822     13821     13823     13821     13824     13824     13825
     13824     13826     13826     13827     13826     13828     13828     13829
     13828     13830     13828     13831     13831     13832     13831     13833
     13833     13834     13833     13835     13835     13836     13835     13837
     13835     13838     13838     13839     13838     13840     13840     13841
     13840     13842     13842     13843     13842     13844     13842     13845
     13845     13846     13845     13847     13845     13848     13848     13849
     13848     13850     13848     13851     13851     13852     13851     13853
     13851     13854     13854     13855     13854     13856     13854     13857
     13805     13806     13806     13808     13806     13807     13808     13809
     13808     13810     13808     13858     13858     13859     13858     13860
     13858     13861     13861     13862     13861     13863     13861     13864
     13864     13865     13864     13866     13864     13867     13867     13868
     13867     13869     13867     13870     13870     13871     13870     13872
     13870     13873     13873     13874     13873     13875     13873     13876
     13876     13877     13876     13878     13876     13879     13879     13880
     13879     13881     13879     13882     13882     13883     13882     13884
     13882     13885     13885     13886     13885     13887     13885     13888
     13888     13889     13888     13890     13888     13891     13891     13892
     13891     13893     13891     13894     13894     13895     13894     13896
     13894     13897     13897     13898     13897     13899     13897     13900
     13900     13901     13900     13902     13900     13903     13903     13904
     13903     13905     13903     13906     13907     13909     13907     13908
     13909     13910     13907     13953     13953     13954     13953     13955
     13953     13950     13950     13951     13950     13952     13907     13911
     13911     13912     13911     13913     13911     13914     13914     13945
     13945     13950     13945     13946     13946     13947     13946     13948
     13946     13949     13914     13915     13915     13916     13915     13917
     13917     13918     13917     13919     13917     13920     13920     13921
     13920     13943     13943     13944     13943     13945     13920     13922
     13922     13923     13922     13932     13932     13937     13937     13938
     13937     13939     13937     13940     13940     13941     13940     13942
     13940     13943     13932     13933     13933     13934     13933     13935
     13933     13936     13922     13924     13924     13925     13924     13926
     13924     13927     13927     13928     13927     13929     13927     13930
     13930     13931     13930     13932     13930     13956     13956     13957
     13956     13958     13958     13959     13958     13960     13958     13961
     13956     13962     13962     13963     13962     13964     13962     13965
     13965     13966     13965     13967     13965     13968     13968     13969
     13968     13970     13968     13971     13971     13972     13971     13973
     13973     13974     13973     13975     13973     13976     13971     13977
     13977     13978     13977     13979     13977     13980     14056     14057
     14056     14058     14056     14059     14056     14053     14053     14054
     14053     14055     14053     14050     14050     14051     14050     14052
     14050     14047     14047     14048     14047     14049     14047     14044
     14044     14045     14044     14046     14044     14041     14041     14042
     14041     14043     14041     14038     14038     14039     14038     14040
     14038     14035     14035     14036     14035     14037     14035     14032
     14032     14033     14032     14034     14032     14029     14029     14030
     14029     14031     14029     14026     14026     14027     14026     14028
     14026     14023     14023     14024     14023     14025     14023     14020
     14020     14021     14020     14022     14020     14018     14018     14019
     14016     14017     14016     14012     14012     14013     14012     14014
     14014     14015     14012     14010     14010     14011     14010     14005
     14005     14006     14005     14007     14005     14003     14003     14000
     14004     14000     14001     14000     14002     14000     14004     13997
     13997     13998     13997     13999     13997     13994     13994     13995
     13994     13996     13994     13981     13981     13990     13981     13986
     13981     13982     13990     13991     13990     13992     13990     13993
     13986     13987     13986     13988     13986     13989     13982     13983
     13982     13984     13982     13985     14010     14008     14008     14009
     14008     14060     14060     14062     14062     14063     14062     14064
     14062     14065     14065     14066     14065     14067     14065     14068
     14068     14069     14068     14070     14068     14071     14071     14072
     14071     14073     14071     14074     14074     14075     14074     14076
     14074     14077     14077     14078     14077     14079     14077     14080
     14080     14081     14080     14082     14080     14083     14083     14084
     14085     14086     14085     14087     14087     14088     14087     14089
     14087     14090     14090     14091     14090     14092     14090     14093
     14093     14094     14093     14095     14093     14096     14096     14097
     14096     14098     14096     14099     14099     14100     14099     14101
     14099     14102     14102     14103     14102     14104     14102     14105
     14105     14106     14105     14107     14105     14108     14108     14109
     14108     14110     14108     14111     14016     14018     14083     14085
     14060     14061     14187     14188     14187     14189     14187     14190
     14187     14184     14184     14185     14184     14186     14184     14181
     14181     14182     14181     14183     14181     14178     14178     14179
     14178     14180     14178     14175     14175     14176     14175     14177
     14175     14172     14172     14173     14172     14174     14172     14169
     14169     14170     14169     14171     14169     14166     14166     14167
     14166     14168     14166     14163     14163     14164     14163     14165
     14163     14160     14160     14161     14160     14162     14160     14157
     14157     14158     14157     14159     14157     14154     14154     14155
     14154     14156     14154     14151     14151     14152     14151     14153
     14151     14149     14149     14150     14147     14148     14147     14143
     14143     14144     14143     14145     14145     14146     14143     14141
     14141     14142     14141     14136     14136     14137     14136     14138
     14136     14134     14134     14131     14135     14131     14132     14131
     14133     14131     14135     14128     14128     14129     14128     14130
     14128     14125     14125     14126     14125     14127     14125     14112
     14112     14121     14112     14117     14112     14113     14121     14122
     14121     14123     14121     14124     14117     14118     14117     14119
     14117     14120     14113     14114     14113     14115     14113     14116
     14141     14139     14139     14140     14139     14191     14191     14193
     14193     14194     14193     14195     14193     14196     14196     14197
     14196     14198     14196     14199     14199     14200     14199     14201
     14199     14202     14202     14203     14202     14204     14202     14205
     14205     14206     14205     14207     14205     14208     14208     14209
     14208     14210     14208     14211     14211     14212     14211     14213
     14211     14214     14214     14215     14216     14217     14216     14218
     14218     14219     14218     14220     14218     14221     14221     14222
     14221     14223     14221     14224     14224     14225     14224     14226
     14224     14227     14227     14228     14227     14229     14227     14230
     14230     14231     14230     14232     14230     14233     14233     14234
     14233     14235     14233     14236     14236     14237     14236     14238
     14236     14239     14239     14240     14239     14241     14239     14242
     14147     14149     14214     14216     14191     14192     14243     14244
     14243     14245     14243     14246     14243     14247     14247     14248
     14247     14249     14247     14250     14250     14251     14250     14252
     14250     14256     14258     14257     14256     14253     14253     14257
     14253     14254     14253     14255     14258     14259     14258     14260
     14258     14261     14261     14262     14261     14269     14261     14263
     14269     14270     14269     14271     14269     14272     14263     14264
     14264     14266     14264     14265     14266     14267     14266     14268
     14266     14278     14278     14279     14278     14280     14278     14281
     14281     14282     14281     14283     14281     14284     14284     14285
     14284     14286     14286     14287     14286     14288     14288     14289
     14288     14290     14288     14291     14291     14292     14291     14293
     14293     14294     14293     14295     14295     14296     14295     14297
     14295     14298     14298     14299     14298     14300     14300     14301
     14300     14302     14302     14303     14302     14304     14302     14305
     14305     14306     14305     14307     14307     14308     14307     14309
     14309     14310     14309     14311     14309     14312     14312     14313
     14312     14314     14312     14315     14315     14316     14315     14317
     14315     14318     14318     14319     14318     14320     14318     14321
     14321     14322     14321     14323     14321     14324     14272     14273
     14273     14275     14273     14274     14275     14276     14275     14277
     14275     14325     14325     14326     14325     14327     14325     14328
     14328     14329     14328     14330     14328     14331     14331     14332
     14331     14333     14331     14334     14334     14335     14334     14336
     14334     14337     14337     14338     14337     14339     14337     14340
     14340     14341     14340     14342     14340     14343     14343     14344
     14343     14345     14343     14346     14346     14347     14346     14348
     14346     14349     14349     14350     14349     14351     14349     14352
     14352     14353     14352     14354     14352     14355     14355     14356
     14355     14357     14355     14358     14358     14359     14358     14360
     14358     14361     14361     14362     14361     14363     14361     14364
     14364     14365     14364     14366     14364     14367     14367     14368
     14367     14369     14367     14370     14370     14371     14370     14372
     14370     14373     14374     14378     14374     14382     14374     14386
     14378     14379     14378     14380     14378     14381     14382     14383
     14382     14384     14382     14385     14386     14387     14386     14388
     14386     14389     14374     14375     14375     14376     14375     14377
     14375     14390     14390     14391     14390     14392     14390     14396
     14397     14398     14396     14393     14393     14397     14393     14394
     14393     14395     14398     14399     14398     14400     14398     14401
     14401     14402     14401     14409     14401     14403     14409     14410
     14409     14411     14409     14412     14403     14404     14404     14406
     14404     14405     14406     14407     14406     14408     14406     14418
     14418     14419     14418     14420     14418     14421     14421     14422
     14421     14423     14421     14424     14424     14425     14424     14426
     14426     14427     14426     14428     14428     14429     14428     14430
     14428     14431     14431     14432     14431     14433     14433     14434
     14433     14435     14435     14436     14435     14437     14435     14438
     14438     14439     14438     14440     14440     14441     14440     14442
     14442     14443     14442     14444     14442     14445     14445     14446
     14445     14447     14447     14448     14447     14449     14449     14450
     14449     14451     14449     14452     14452     14453     14452     14454
     14452     14455     14455     14456     14455     14457     14455     14458
     14458     14459     14458     14460     14458     14461     14461     14462
     14461     14463     14461     14464     14412     14413     14413     14415
     14413     14414     14415     14416     14415     14417     14415     14465
     14465     14466     14465     14467     14465     14468     14468     14469
     14468     14470     14468     14471     14471     14472     14471     14473
     14471     14474     14474     14475     14474     14476     14474     14477
     14477     14478     14477     14479     14477     14480     14480     14481
     14480     14482     14480     14483     14483     14484     14483     14485
     14483     14486     14486     14487     14486     14488     14486     14489
     14489     14490     14489     14491     14489     14492     14492     14493
     14492     14494     14492     14495     14495     14496     14495     14497
     14495     14498     14498     14499     14498     14500     14498     14501
     14501     14502     14501     14503     14501     14504     14504     14505
     14504     14506     14504     14507     14507     14508     14507     14509
     14507     14510     14510     14511     14510     14512     14510     14513
     14589     14590     14589     14591     14589     14592     14589     14586
     14586     14587     14586     14588     14586     14583     14583     14584
     14583     14585     14583     14580     14580     14581     14580     14582
     14580     14577     14577     14578     14577     14579     14577     14574
     14574     14575     14574     14576     14574     14571     14571     14572
     14571     14573     14571     14568     14568     14569     14568     14570
     14568     14565     14565     14566     14565     14567     14565     14562
     14562     14563     14562     14564     14562     14559     14559     14560
     14559     14561     14559     14556     14556     14557     14556     14558
     14556     14553     14553     14554     14553     14555     14553     14551
     14551     14552     14549     14550     14549     14545     14545     14546
     14545     14547     14547     14548     14545     14543     14543     14544
     14543     14538     14538     14539     14538     14540     14538     14536
     14536     14533     14537     14533     14534     14533     14535     14533
     14537     14530     14530     14531     14530     14532     14530     14527
     14527     14528     14527     14529     14527     14514     14514     14523
     14514     14519     14514     14515     14523     14524     14523     14525
     14523     14526     14519     14520     14519     14521     14519     14522
     14515     14516     14515     14517     14515     14518     14543     14541
     14541     14542     14541     14593     14593     14595     14595     14596
     14595     14597     14595     14598     14598     14599     14598     14600
     14598     14601     14601     14602     14601     14603     14601     14604
     14604     14605     14604     14606     14604     14607     14607     14608
     14607     14609     14607     14610     14610     14611     14610     14612
     14610     14613     14613     14614     14613     14615     14613     14616
     14616     14617     14618     14619     14618     14620     14620     14621
     14620     14622     14620     14623     14623     14624     14623     14625
     14623     14626     14626     14627     14626     14628     14626     14629
     14629     14630     14629     14631     14629     14632     14632     14633
     14632     14634     14632     14635     14635     14636     14635     14637
     14635     14638     14638     14639     14638     14640     14638     14641
     14641     14642     14641     14643     14641     14644     14549     14551
     14616     14618     14593     14594     14645     14647     14645     14646
     14647     14648     14645     14691     14691     14692     14691     14693
     14691     14688     14688     14689     14688     14690     14645     14649
     14649     14650     14649     14651     14649     14652     14652     14683
     14683     14688     14683     14684     14684     14685     14684     14686
     14684     14687     14652     14653     14653     14654     14653     14655
     14655     14656     14655     14657     14655     14658     14658     14659
     14658     14681     14681     14682     14681     14683     14658     14660
     14660     14661     14660     14670     14670     14675     14675     14676
     14675     14677     14675     14678     14678     14679     14678     14680
     14678     14681     14670     14671     14671     14672     14671     14673
     14671     14674     14660     14662     14662     14663     14662     14664
     14662     14665     14665     14666     14665     14667     14665     14668
     14668     14669     14668     14670     14668     14694     14694     14695
     14694     14696     14696     14697     14696     14698     14696     14699
     14694     14700     14700     14701     14700     14702     14700     14703
     14703     14704     14703     14705     14703     14706     14706     14707
     14706     14708     14706     14709     14709     14710     14709     14711
     14711     14712     14711     14713     14711     14714     14709     14715
     14715     14716     14715     14717     14715     14718     14719     14720
     14719     14721     14719     14722     14719     14723     14727     14725
     14725     14723     14725     14726     14723     14724     14723     14728
     14736     14735     14728     14729     14728     14730     14728     14734
     14734     14731     14731     14735     14731     14732     14731     14733
     14736     14737     14736     14738     14736     14739     14739     14740
     14739     14747     14739     14741     14747     14748     14747     14749
     14747     14750     14741     14742     14742     14744     14742     14743
     14744     14745     14744     14746     14744     14756     14756     14757
     14756     14758     14756     14759     14759     14760     14759     14761
     14759     14762     14762     14763     14762     14764     14764     14765
     14764     14766     14766     14767     14766     14768     14766     14769
     14769     14770     14769     14771     14771     14772     14771     14773
     14773     14774     14773     14775     14773     14776     14776     14777
     14776     14778     14778     14779     14778     14780     14780     14781
     14780     14782     14780     14783     14783     14784     14783     14785
     14785     14786     14785     14787     14787     14788     14787     14789
     14787     14790     14790     14791     14790     14792     14790     14793
     14793     14794     14793     14795     14793     14796     14796     14797
     14796     14798     14796     14799     14799     14800     14799     14801
     14799     14802     14750     14751     14751     14753     14751     14752
     14753     14754     14753     14755     14753     14803     14803     14804
     14803     14805     14803     14806     14806     14807     14806     14808
     14806     14809     14809     14810     14809     14811     14809     14812
     14812     14813     14812     14814     14812     14815     14815     14816
     14815     14817     14815     14818     14818     14819     14818     14820
     14818     14821     14821     14822     14821     14823     14821     14824
     14824     14825     14824     14826     14824     14827     14827     14828
     14827     14829     14827     14830     14830     14831     14830     14832
     14830     14833     14833     14834     14833     14835     14833     14836
     14836     14837     14836     14838     14836     14839     14839     14840
     14839     14841     14839     14842     14842     14843     14842     14844
     14842     14845     14845     14846     14845     14847     14845     14848
     14848     14849     14848     14850     14848     14851     14852     14854
     14852     14853     14854     14855     14852     14898     14898     14899
     14898     14900     14898     14895     14895     14896     14895     14897
     14852     14856     14856     14857     14856     14858     14856     14859
     14859     14890     14890     14895     14890     14891     14891     14892
     14891     14893     14891     14894     14859     14860     14860     14861
     14860     14862     14862     14863     14862     14864     14862     14865
     14865     14866     14865     14888     14888     14889     14888     14890
     14865     14867     14867     14868     14867     14877     14877     14882
     14882     14883     14882     14884     14882     14885     14885     14886
     14885     14887     14885     14888     14877     14878     14878     14879
     14878     14880     14878     14881     14867     14869     14869     14870
     14869     14871     14869     14872     14872     14873     14872     14874
     14872     14875     14875     14876     14875     14877     14875     14901
     14901     14902     14901     14903     14903     14904     14903     14905
     14903     14906     14901     14907     14907     14908     14907     14909
     14907     14910     14910     14911     14910     14912     14910     14913
     14913     14914     14913     14915     14913     14916     14916     14917
     14916     14918     14918     14919     14918     14920     14918     14921
     14916     14922     14922     14923     14922     14924     14922     14925
     14926     14927     14926     14928     14926     14929     14926     14930
     14934     14932     14932     14930     14932     14933     14930     14931
     14930     14935     14943     14942     14935     14936     14935     14937
     14935     14941     14941     14938     14938     14942     14938     14939
     14938     14940     14943     14944     14943     14945     14943     14946
     14946     14947     14946     14954     14946     14948     14954     14955
     14954     14956     14954     14957     14948     14949     14949     14951
     14949     14950     14951     14952     14951     14953     14951     14963
     14963     14964     14963     14965     14963     14966     14966     14967
     14966     14968     14966     14969     14969     14970     14969     14971
     14971     14972     14971     14973     14973     14974     14973     14975
     14973     14976     14976     14977     14976     14978     14978     14979
     14978     14980     14980     14981     14980     14982     14980     14983
     14983     14984     14983     14985     14985     14986     14985     14987
     14987     14988     14987     14989     14987     14990     14990     14991
     14990     14992     14992     14993     14992     14994     14994     14995
     14994     14996     14994     14997     14997     14998     14997     14999
     14997     15000     15000     15001     15000     15002     15000     15003
     15003     15004     15003     15005     15003     15006     15006     15007
     15006     15008     15006     15009     14957     14958     14958     14960
     14958     14959     14960     14961     14960     14962     14960     15010
     15010     15011     15010     15012     15010     15013     15013     15014
     15013     15015     15013     15016     15016     15017     15016     15018
     15016     15019     15019     15020     15019     15021     15019     15022
     15022     15023     15022     15024     15022     15025     15025     15026
     15025     15027     15025     15028     15028     15029     15028     15030
     15028     15031     15031     15032     15031     15033     15031     15034
     15034     15035     15034     15036     15034     15037     15037     15038
     15037     15039     15037     15040     15040     15041     15040     15042
     15040     15043     15043     15044     15043     15045     15043     15046
     15046     15047     15046     15048     15046     15049     15049     15050
     15049     15051     15049     15052     15052     15053     15052     15054
     15052     15055     15055     15056     15055     15057     15055     15058
     15134     15135     15134     15136     15134     15137     15134     15131
     15131     15132     15131     15133     15131     15128     15128     15129
     15128     15130     15128     15125     15125     15126     15125     15127
     15125     15122     15122     15123     15122     15124     15122     15119
     15119     15120     15119     15121     15119     15116     15116     15117
     15116     15118     15116     15113     15113     15114     15113     15115
     15113     15110     15110     15111     15110     15112     15110     15107
     15107     15108     15107     15109     15107     15104     15104     15105
     15104     15106     15104     15101     15101     15102     15101     15103
     15101     15098     15098     15099     15098     15100     15098     15096
     15096     15097     15094     15095     15094     15090     15090     15091
     15090     15092     15092     15093     15090     15088     15088     15089
     15088     15083     15083     15084     15083     15085     15083     15081
     15081     15078     15082     15078     15079     15078     15080     15078
     15082     15075     15075     15076     15075     15077     15075     15072
     15072     15073     15072     15074     15072     15059     15059     15068
     15059     15064     15059     15060     15068     15069     15068     15070
     15068     15071     15064     15065     15064     15066     15064     15067
     15060     15061     15060     15062     15060     15063     15088     15086
     15086     15087     15086     15138     15138     15140     15140     15141
     15140     15142     15140     15143     15143     15144     15143     15145
     15143     15146     15146     15147     15146     15148     15146     15149
     15149     15150     15149     15151     15149     15152     15152     15153
     15152     15154     15152     15155     15155     15156     15155     15157
     15155     15158     15158     15159     15158     15160     15158     15161
     15161     15162     15163     15164     15163     15165     15165     15166
     15165     15167     15165     15168     15168     15169     15168     15170
     15168     15171     15171     15172     15171     15173     15171     15174
     15174     15175     15174     15176     15174     15177     15177     15178
     15177     15179     15177     15180     15180     15181     15180     15182
     15180     15183     15183     15184     15183     15185     15183     15186
     15186     15187     15186     15188     15186     15189     15094     15096
     15161     15163     15138     15139     15190     15191     15190     15192
     15190     15193     15190     15194     15194     15195     15194     15196
     15194     15197     15197     15198     15197     15199     15197     15203
     15205     15204     15203     15200     15200     15204     15200     15201
     15200     15202     15205     15206     15205     15207     15205     15208
     15208     15209     15208     15216     15208     15210     15216     15217
     15216     15218     15216     15219     15210     15211     15211     15213
     15211     15212     15213     15214     15213     15215     15213     15225
     15225     15226     15225     15227     15225     15228     15228     15229
     15228     15230     15228     15231     15231     15232     15231     15233
     15233     15234     15233     15235     15235     15236     15235     15237
     15235     15238     15238     15239     15238     15240     15240     15241
     15240     15242     15242     15243     15242     15244     15242     15245
     15245     15246     15245     15247     15247     15248     15247     15249
     15249     15250     15249     15251     15249     15252     15252     15253
     15252     15254     15254     15255     15254     15256     15256     15257
     15256     15258     15256     15259     15259     15260     15259     15261
     15259     15262     15262     15263     15262     15264     15262     15265
     15265     15266     15265     15267     15265     15268     15268     15269
     15268     15270     15268     15271     15219     15220     15220     15222
     15220     15221     15222     15223     15222     15224     15222     15272
     15272     15273     15272     15274     15272     15275     15275     15276
     15275     15277     15275     15278     15278     15279     15278     15280
     15278     15281     15281     15282     15281     15283     15281     15284
     15284     15285     15284     15286     15284     15287     15287     15288
     15287     15289     15287     15290     15290     15291     15290     15292
     15290     15293     15293     15294     15293     15295     15293     15296
     15296     15297     15296     15298     15296     15299     15299     15300
     15299     15301     15299     15302     15302     15303     15302     15304
     15302     15305     15305     15306     15305     15307     15305     15308
     15308     15309     15308     15310     15308     15311     15311     15312
     15311     15313     15311     15314     15314     15315     15314     15316
     15314     15317     15317     15318     15317     15319     15317     15320
     15321     15323     15321     15322     15323     15324     15321     15367
     15367     15368     15367     15369     15367     15364     15364     15365
     15364     15366     15321     15325     15325     15326     15325     15327
     15325     15328     15328     15359     15359     15364     15359     15360
     15360     15361     15360     15362     15360     15363     15328     15329
     15329     15330     15329     15331     15331     15332     15331     15333
     15331     15334     15334     15335     15334     15357     15357     15358
     15357     15359     15334     15336     15336     15337     15336     15346
     15346     15351     15351     15352     15351     15353     15351     15354
     15354     15355     15354     15356     15354     15357     15346     15347
     15347     15348     15347     15349     15347     15350     15336     15338
     15338     15339     15338     15340     15338     15341     15341     15342
     15341     15343     15341     15344     15344     15345     15344     15346
     15344     15370     15370     15371     15370     15372     15372     15373
     15372     15374     15372     15375     15370     15376     15376     15377
     15376     15378     15376     15379     15379     15380     15379     15381
     15379     15382     15382     15383     15382     15384     15382     15385
     15385     15386     15385     15387     15387     15388     15387     15389
     15387     15390     15385     15391     15391     15392     15391     15393
     15391     15394     15470     15471     15470     15472     15470     15473
     15470     15467     15467     15468     15467     15469     15467     15464
     15464     15465     15464     15466     15464     15461     15461     15462
     15461     15463     15461     15458     15458     15459     15458     15460
     15458     15455     15455     15456     15455     15457     15455     15452
     15452     15453     15452     15454     15452     15449     15449     15450
     15449     15451     15449     15446     15446     15447     15446     15448
     15446     15443     15443     15444     15443     15445     15443     15440
     15440     15441     15440     15442     15440     15437     15437     15438
     15437     15439     15437     15434     15434     15435     15434     15436
     15434     15432     15432     15433     15430     15431     15430     15426
     15426     15427     15426     15428     15428     15429     15426     15424
     15424     15425     15424     15419     15419     15420     15419     15421
     15419     15417     15417     15414     15418     15414     15415     15414
     15416     15414     15418     15411     15411     15412     15411     15413
     15411     15408     15408     15409     15408     15410     15408     15395
     15395     15404     15395     15400     15395     15396     15404     15405
     15404     15406     15404     15407     15400     15401     15400     15402
     15400     15403     15396     15397     15396     15398     15396     15399
     15424     15422     15422     15423     15422     15474     15474     15476
     15476     15477     15476     15478     15476     15479     15479     15480
     15479     15481     15479     15482     15482     15483     15482     15484
     15482     15485     15485     15486     15485     15487     15485     15488
     15488     15489     15488     15490     15488     15491     15491     15492
     15491     15493     15491     15494     15494     15495     15494     15496
     15494     15497     15497     15498     15499     15500     15499     15501
     15501     15502     15501     15503     15501     15504     15504     15505
     15504     15506     15504     15507     15507     15508     15507     15509
     15507     15510     15510     15511     15510     15512     15510     15513
     15513     15514     15513     15515     15513     15516     15516     15517
     15516     15518     15516     15519     15519     15520     15519     15521
     15519     15522     15522     15523     15522     15524     15522     15525
     15430     15432     15497     15499     15474     15475     15601     15602
     15601     15603     15601     15604     15601     15598     15598     15599
     15598     15600     15598     15595     15595     15596     15595     15597
     15595     15592     15592     15593     15592     15594     15592     15589
     15589     15590     15589     15591     15589     15586     15586     15587
     15586     15588     15586     15583     15583     15584     15583     15585
     15583     15580     15580     15581     15580     15582     15580     15577
     15577     15578     15577     15579     15577     15574     15574     15575
     15574     15576     15574     15571     15571     15572     15571     15573
     15571     15568     15568     15569     15568     15570     15568     15565
     15565     15566     15565     15567     15565     15563     15563     15564
     15561     15562     15561     15557     15557     15558     15557     15559
     15559     15560     15557     15555     15555     15556     15555     15550
     15550     15551     15550     15552     15550     15548     15548     15545
     15549     15545     15546     15545     15547     15545     15549     15542
     15542     15543     15542     15544     15542     15539     15539     15540
     15539     15541     15539     15526     15526     15535     15526     15531
     15526     15527     15535     15536     15535     15537     15535     15538
     15531     15532     15531     15533     15531     15534     15527     15528
     15527     15529     15527     15530     15555     15553     15553     15554
     15553     15605     15605     15607     15607     15608     15607     15609
     15607     15610     15610     15611     15610     15612     15610     15613
     15613     15614     15613     15615     15613     15616     15616     15617
     15616     15618     15616     15619     15619     15620     15619     15621
     15619     15622     15622     15623     15622     15624     15622     15625
     15625     15626     15625     15627     15625     15628     15628     15629
     15630     15631     15630     15632     15632     15633     15632     15634
     15632     15635     15635     15636     15635     15637     15635     15638
     15638     15639     15638     15640     15638     15641     15641     15642
     15641     15643     15641     15644     15644     15645     15644     15646
     15644     15647     15647     15648     15647     15649     15647     15650
     15650     15651     15650     15652     15650     15653     15653     15654
     15653     15655     15653     15656     15561     15563     15628     15630
     15605     15606     15657     15658     15657     15662     15657     15666
     15658     15659     15658     15660     15658     15661     15662     15663
     15662     15664     15662     15665     15666     15667     15666     15668
     15666     15669     15657     15670     15670     15671     15670     15672
     15670     15673     15673     15674     15673     15675     15673     15679
     15680     15681     15679     15676     15676     15680     15676     15677
     15676     15678     15681     15682     15681     15683     15681     15684
     15684     15685     15684     15692     15684     15686     15692     15693
     15692     15694     15692     15695     15686     15687     15687     15689
     15687     15688     15689     15690     15689     15691     15689     15701
     15701     15702     15701     15703     15701     15704     15704     15705
     15704     15706     15704     15707     15707     15708     15707     15709
     15707     15710     15710     15711     15710     15712     15710     15713
     15713     15714     15713     15715     15713     15716     15716     15717
     15716     15718     15716     15719     15719     15720     15719     15721
     15721     15722     15721     15723     15723     15724     15723     15725
     15723     15726     15726     15727     15726     15728     15728     15729
     15728     15730     15730     15731     15730     15732     15730     15733
     15733     15734     15733     15735     15733     15736     15736     15737
     15736     15738     15736     15739     15739     15740     15739     15741
     15739     15742     15742     15743     15742     15744     15742     15745
     15695     15696     15696     15698     15696     15697     15698     15699
     15698     15700     15698     15746     15746     15747     15746     15748
     15746     15749     15749     15750     15749     15751     15749     15752
     15752     15753     15752     15754     15752     15755     15755     15756
     15755     15757     15755     15758     15758     15759     15758     15760
     15758     15761     15761     15762     15761     15763     15761     15764
     15764     15765     15764     15766     15764     15767     15767     15768
     15767     15769     15767     15770     15770     15771     15770     15772
     15770     15773     15773     15774     15773     15775     15773     15776
     15776     15777     15776     15778     15776     15779     15779     15780
     15779     15781     15779     15782     15782     15783     15782     15784
     15782     15785     15785     15786     15785     15787     15785     15788
     15788     15789     15788     15790     15788     15791     15791     15792
     15791     15793     15791     15794     15870     15871     15870     15872
     15870     15873     15870     15867     15867     15868     15867     15869
     15867     15864     15864     15865     15864     15866     15864     15861
     15861     15862     15861     15863     15861     15858     15858     15859
     15858     15860     15858     15855     15855     15856     15855     15857
     15855     15852     15852     15853     15852     15854     15852     15849
     15849     15850     15849     15851     15849     15846     15846     15847
     15846     15848     15846     15843     15843     15844     15843     15845
     15843     15840     15840     15841     15840     15842     15840     15837
     15837     15838     15837     15839     15837     15834     15834     15835
     15834     15836     15834     15832     15832     15833     15830     15831
     15830     15826     15826     15827     15826     15828     15828     15829
     15826     15824     15824     15825     15824     15819     15819     15820
     15819     15821     15819     15817     15817     15814     15818     15814
     15815     15814     15816     15814     15818     15811     15811     15812
     15811     15813     15811     15808     15808     15809     15808     15810
     15808     15795     15795     15804     15795     15800     15795     15796
     15804     15805     15804     15806     15804     15807     15800     15801
     15800     15802     15800     15803     15796     15797     15796     15798
     15796     15799     15824     15822     15822     15823     15822     15874
     15874     15876     15876     15877     15876     15878     15876     15879
     15879     15880     15879     15881     15879     15882     15882     15883
     15882     15884     15882     15885     15885     15886     15885     15887
     15885     15888     15888     15889     15888     15890     15888     15891
     15891     15892     15891     15893     15891     15894     15894     15895
     15894     15896     15894     15897     15897     15898     15899     15900
     15899     15901     15901     15902     15901     15903     15901     15904
     15904     15905     15904     15906     15904     15907     15907     15908
     15907     15909     15907     15910     15910     15911     15910     15912
     15910     15913     15913     15914     15913     15915     15913     15916
     15916     15917     15916     15918     15916     15919     15919     15920
     15919     15921     15919     15922     15922     15923     15922     15924
     15922     15925     15830     15832     15897     15899     15874     15875
     16001     16002     16001     16003     16001     16004     16001     15998
     15998     15999     15998     16000     15998     15995     15995     15996
     15995     15997     15995     15992     15992     15993     15992     15994
     15992     15989     15989     15990     15989     15991     15989     15986
     15986     15987     15986     15988     15986     15983     15983     15984
     15983     15985     15983     15980     15980     15981     15980     15982
     15980     15977     15977     15978     15977     15979     15977     15974
     15974     15975     15974     15976     15974     15971     15971     15972
     15971     15973     15971     15968     15968     15969     15968     15970
     15968     15965     15965     15966     15965     15967     15965     15963
     15963     15964     15961     15962     15961     15957     15957     15958
     15957     15959     15959     15960     15957     15955     15955     15956
     15955     15950     15950     15951     15950     15952     15950     15948
     15948     15945     15949     15945     15946     15945     15947     15945
     15949     15942     15942     15943     15942     15944     15942     15939
     15939     15940     15939     15941     15939     15926     15926     15935
     15926     15931     15926     15927     15935     15936     15935     15937
     15935     15938     15931     15932     15931     15933     15931     15934
     15927     15928     15927     15929     15927     15930     15955     15953
     15953     15954     15953     16005     16005     16007     16007     16008
     16007     16009     16007     16010     16010     16011     16010     16012
     16010     16013     16013     16014     16013     16015     16013     16016
     16016     16017     16016     16018     16016     16019     16019     16020
     16019     16021     16019     16022     16022     16023     16022     16024
     16022     16025     16025     16026     16025     16027     16025     16028
     16028     16029     16030     16031     16030     16032     16032     16033
     16032     16034     16032     16035     16035     16036     16035     16037
     16035     16038     16038     16039     16038     16040     16038     16041
     16041     16042     16041     16043     16041     16044     16044     16045
     16044     16046     16044     16047     16047     16048     16047     16049
     16047     16050     16050     16051     16050     16052     16050     16053
     16053     16054     16053     16055     16053     16056     15961     15963
     16028     16030     16005     16006     16057     16058     16057     16059
     16057     16060     16057     16061     16065     16063     16063     16061
     16063     16064     16061     16062     16061     16066     16074     16073
     16066     16067     16066     16068     16066     16072     16072     16069
     16069     16073     16069     16070     16069     16071     16074     16075
     16074     16076     16074     16077     16077     16078     16077     16085
     16077     16079     16085     16086     16085     16087     16085     16088
     16079     16080     16080     16082     16080     16081     16082     16083
     16082     16084     16082     16094     16094     16095     16094     16096
     16094     16097     16097     16098     16097     16099     16097     16100
     16100     16101     16100     16102     16102     16103     16102     16104
     16104     16105     16104     16106     16104     16107     16107     16108
     16107     16109     16109     16110     16109     16111     16111     16112
     16111     16113     16111     16114     16114     16115     16114     16116
     16116     16117     16116     16118     16118     16119     16118     16120
     16118     16121     16121     16122     16121     16123     16123     16124
     16123     16125     16125     16126     16125     16127     16125     16128
     16128     16129     16128     16130     16128     16131     16131     16132
     16131     16133     16131     16134     16134     16135     16134     16136
     16134     16137     16137     16138     16137     16139     16137     16140
     16088     16089     16089     16091     16089     16090     16091     16092
     16091     16093     16091     16141     16141     16142     16141     16143
     16141     16144     16144     16145     16144     16146     16144     16147
     16147     16148     16147     16149     16147     16150     16150     16151
     16150     16152     16150     16153     16153     16154     16153     16155
     16153     16156     16156     16157     16156     16158     16156     16159
     16159     16160     16159     16161     16159     16162     16162     16163
     16162     16164     16162     16165     16165     16166     16165     16167
     16165     16168     16168     16169     16168     16170     16168     16171
     16171     16172     16171     16173     16171     16174     16174     16175
     16174     16176     16174     16177     16177     16178     16177     16179
     16177     16180     16180     16181     16180     16182     16180     16183
     16183     16184     16183     16185     16183     16186     16186     16187
     16186     16188     16186     16189     16190     16192     16190     16191
     16192     16193     16190     16236     16236     16237     16236     16238
     16236     16233     16233     16234     16233     16235     16190     16194
     16194     16195     16194     16196     16194     16197     16197     16228
     16228     16233     16228     16229     16229     16230     16229     16231
     16229     16232     16197     16198     16198     16199     16198     16200
     16200     16201     16200     16202     16200     16203     16203     16204
     16203     16226     16226     16227     16226     16228     16203     16205
     16205     16206     16205     16215     16215     16220     16220     16221
     16220     16222     16220     16223     16223     16224     16223     16225
     16223     16226     16215     16216     16216     16217     16216     16218
     16216     16219     16205     16207     16207     16208     16207     16209
     16207     16210     16210     16211     16210     16212     16210     16213
     16213     16214     16213     16215     16213     16239     16239     16240
     16239     16241     16241     16242     16241     16243     16241     16244
     16239     16245     16245     16246     16245     16247     16245     16248
     16248     16249     16248     16250     16248     16251     16251     16252
     16251     16253     16251     16254     16254     16255     16254     16256
     16256     16257     16256     16258     16256     16259     16254     16260
     16260     16261     16260     16262     16260     16263     16339     16340
     16339     16341     16339     16342     16339     16336     16336     16337
     16336     16338     16336     16333     16333     16334     16333     16335
     16333     16330     16330     16331     16330     16332     16330     16327
     16327     16328     16327     16329     16327     16324     16324     16325
     16324     16326     16324     16321     16321     16322     16321     16323
     16321     16318     16318     16319     16318     16320     16318     16315
     16315     16316     16315     16317     16315     16312     16312     16313
     16312     16314     16312     16309     16309     16310     16309     16311
     16309     16306     16306     16307     16306     16308     16306     16303
     16303     16304     16303     16305     16303     16301     16301     16302
     16299     16300     16299     16295     16295     16296     16295     16297
     16297     16298     16295     16293     16293     16294     16293     16288
     16288     16289     16288     16290     16288     16286     16286     16283
     16287     16283     16284     16283     16285     16283     16287     16280
     16280     16281     16280     16282     16280     16277     16277     16278
     16277     16279     16277     16264     16264     16273     16264     16269
     16264     16265     16273     16274     16273     16275     16273     16276
     16269     16270     16269     16271     16269     16272     16265     16266
     16265     16267     16265     16268     16293     16291     16291     16292
     16291     16343     16343     16345     16345     16346     16345     16347
     16345     16348     16348     16349     16348     16350     16348     16351
     16351     16352     16351     16353     16351     16354     16354     16355
     16354     16356     16354     16357     16357     16358     16357     16359
     16357     16360     16360     16361     16360     16362     16360     16363
     16363     16364     16363     16365     16363     16366     16366     16367
     16368     16369     16368     16370     16370     16371     16370     16372
     16370     16373     16373     16374     16373     16375     16373     16376
     16376     16377     16376     16378     16376     16379     16379     16380
     16379     16381     16379     16382     16382     16383     16382     16384
     16382     16385     16385     16386     16385     16387     16385     16388
     16388     16389     16388     16390     16388     16391     16391     16392
     16391     16393     16391     16394     16299     16301     16366     16368
     16343     16344     16395     16396     16395     16397     16395     16398
     16395     16399     16399     16400     16399     16401     16399     16402
     16402     16403     16402     16404     16402     16408     16410     16409
     16408     16405     16405     16409     16405     16406     16405     16407
     16410     16411     16410     16412     16410     16413     16413     16414
     16413     16421     16413     16415     16421     16422     16421     16423
     16421     16424     16415     16416     16416     16418     16416     16417
     16418     16419     16418     16420     16418     16430     16430     16431
     16430     16432     16430     16433     16433     16434     16433     16435
     16433     16436     16436     16437     16436     16438     16438     16439
     16438     16440     16440     16441     16440     16442     16440     16443
     16443     16444     16443     16445     16445     16446     16445     16447
     16447     16448     16447     16449     16447     16450     16450     16451
     16450     16452     16452     16453     16452     16454     16454     16455
     16454     16456     16454     16457     16457     16458     16457     16459
     16459     16460     16459     16461     16461     16462     16461     16463
     16461     16464     16464     16465     16464     16466     16464     16467
     16467     16468     16467     16469     16467     16470     16470     16471
     16470     16472     16470     16473     16473     16474     16473     16475
     16473     16476     16424     16425     16425     16427     16425     16426
     16427     16428     16427     16429     16427     16477     16477     16478
     16477     16479     16477     16480     16480     16481     16480     16482
     16480     16483     16483     16484     16483     16485     16483     16486
     16486     16487     16486     16488     16486     16489     16489     16490
     16489     16491     16489     16492     16492     16493     16492     16494
     16492     16495     16495     16496     16495     16497     16495     16498
     16498     16499     16498     16500     16498     16501     16501     16502
     16501     16503     16501     16504     16504     16505     16504     16506
     16504     16507     16507     16508     16507     16509     16507     16510
     16510     16511     16510     16512     16510     16513     16513     16514
     16513     16515     16513     16516     16516     16517     16516     16518
     16516     16519     16519     16520     16519     16521     16519     16522
     16522     16523     16522     16524     16522     16525     16526     16527
     16526     16531     16526     16535     16527     16528     16527     16529
     16527     16530     16531     16532     16531     16533     16531     16534
     16535     16536     16535     16537     16535     16538     16526     16539
     16539     16540     16539     16541     16539     16542     16542     16543
     16542     16544     16542     16548     16549     16550     16548     16545
     16545     16549     16545     16546     16545     16547     16550     16551
     16550     16552     16550     16553     16553     16554     16553     16561
     16553     16555     16561     16562     16561     16563     16561     16564
     16555     16556     16556     16558     16556     16557     16558     16559
     16558     16560     16558     16570     16570     16571     16570     16572
     16570     16573     16573     16574     16573     16575     16573     16576
     16576     16577     16576     16578     16576     16579     16579     16580
     16579     16581     16579     16582     16582     16583     16582     16584
     16582     16585     16585     16586     16585     16587     16585     16588
     16588     16589     16588     16590     16590     16591     16590     16592
     16592     16593     16592     16594     16592     16595     16595     16596
     16595     16597     16597     16598     16597     16599     16599     16600
     16599     16601     16599     16602     16602     16603     16602     16604
     16602     16605     16605     16606     16605     16607     16605     16608
     16608     16609     16608     16610     16608     16611     16611     16612
     16611     16613     16611     16614     16564     16565     16565     16567
     16565     16566     16567     16568     16567     16569     16567     16615
     16615     16616     16615     16617     16615     16618     16618     16619
     16618     16620     16618     16621     16621     16622     16621     16623
     16621     16624     16624     16625     16624     16626     16624     16627
     16627     16628     16627     16629     16627     16630     16630     16631
     16630     16632     16630     16633     16633     16634     16633     16635
     16633     16636     16636     16637     16636     16638     16636     16639
     16639     16640     16639     16641     16639     16642     16642     16643
     16642     16644     16642     16645     16645     16646     16645     16647
     16645     16648     16648     16649     16648     16650     16648     16651
     16651     16652     16651     16653     16651     16654     16654     16655
     16654     16656     16654     16657     16657     16658     16657     16659
     16657     16660     16660     16661     16660     16662     16660     16663
     16739     16740     16739     16741     16739     16742     16739     16736
     16736     16737     16736     16738     16736     16733     16733     16734
     16733     16735     16733     16730     16730     16731     16730     16732
     16730     16727     16727     16728     16727     16729     16727     16724
     16724     16725     16724     16726     16724     16721     16721     16722
     16721     16723     16721     16718     16718     16719     16718     16720
     16718     16715     16715     16716     16715     16717     16715     16712
     16712     16713     16712     16714     16712     16709     16709     16710
     16709     16711     16709     16706     16706     16707     16706     16708
     16706     16703     16703     16704     16703     16705     16703     16701
     16701     16702     16699     16700     16699     16695     16695     16696
     16695     16697     16697     16698     16695     16693     16693     16694
     16693     16688     16688     16689     16688     16690     16688     16686
     16686     16683     16687     16683     16684     16683     16685     16683
     16687     16680     16680     16681     16680     16682     16680     16677
     16677     16678     16677     16679     16677     16664     16664     16673
     16664     16669     16664     16665     16673     16674     16673     16675
     16673     16676     16669     16670     16669     16671     16669     16672
     16665     16666     16665     16667     16665     16668     16693     16691
     16691     16692     16691     16743     16743     16745     16745     16746
     16745     16747     16745     16748     16748     16749     16748     16750
     16748     16751     16751     16752     16751     16753     16751     16754
     16754     16755     16754     16756     16754     16757     16757     16758
     16757     16759     16757     16760     16760     16761     16760     16762
     16760     16763     16763     16764     16763     16765     16763     16766
     16766     16767     16768     16769     16768     16770     16770     16771
     16770     16772     16770     16773     16773     16774     16773     16775
     16773     16776     16776     16777     16776     16778     16776     16779
     16779     16780     16779     16781     16779     16782     16782     16783
     16782     16784     16782     16785     16785     16786     16785     16787
     16785     16788     16788     16789     16788     16790     16788     16791
     16791     16792     16791     16793     16791     16794     16699     16701
     16766     16768     16743     16744     16795     16797     16795     16796
     16797     16798     16795     16841     16841     16842     16841     16843
     16841     16838     16838     16839     16838     16840     16795     16799
     16799     16800     16799     16801     16799     16802     16802     16833
     16833     16838     16833     16834     16834     16835     16834     16836
     16834     16837     16802     16803     16803     16804     16803     16805
     16805     16806     16805     16807     16805     16808     16808     16809
     16808     16831     16831     16832     16831     16833     16808     16810
     16810     16811     16810     16820     16820     16825     16825     16826
     16825     16827     16825     16828     16828     16829     16828     16830
     16828     16831     16820     16821     16821     16822     16821     16823
     16821     16824     16810     16812     16812     16813     16812     16814
     16812     16815     16815     16816     16815     16817     16815     16818
     16818     16819     16818     16820     16818     16844     16844     16845
     16844     16846     16846     16847     16846     16848     16846     16849
     16844     16850     16850     16851     16850     16852     16850     16853
     16853     16854     16853     16855     16853     16856     16856     16857
     16856     16858     16856     16859     16859     16860     16859     16861
     16861     16862     16861     16863     16861     16864     16859     16865
     16865     16866     16865     16867     16865     16868     16869     16871
     16869     16870     16871     16872     16869     16915     16915     16916
     16915     16917     16915     16912     16912     16913     16912     16914
     16869     16873     16873     16874     16873     16875     16873     16876
     16876     16907     16907     16912     16907     16908     16908     16909
     16908     16910     16908     16911     16876     16877     16877     16878
     16877     16879     16879     16880     16879     16881     16879     16882
     16882     16883     16882     16905     16905     16906     16905     16907
     16882     16884     16884     16885     16884     16894     16894     16899
     16899     16900     16899     16901     16899     16902     16902     16903
     16902     16904     16902     16905     16894     16895     16895     16896
     16895     16897     16895     16898     16884     16886     16886     16887
     16886     16888     16886     16889     16889     16890     16889     16891
     16889     16892     16892     16893     16892     16894     16892     16918
     16918     16919     16918     16920     16920     16921     16920     16922
     16920     16923     16918     16924     16924     16925     16924     16926
     16924     16927     16927     16928     16927     16929     16927     16930
     16930     16931     16930     16932     16930     16933     16933     16934
     16933     16935     16935     16936     16935     16937     16935     16938
     16933     16939     16939     16940     16939     16941     16939     16942
     16943     16945     16943     16944     16945     16946     16943     16989
     16989     16990     16989     16991     16989     16986     16986     16987
     16986     16988     16943     16947     16947     16948     16947     16949
     16947     16950     16950     16981     16981     16986     16981     16982
     16982     16983     16982     16984     16982     16985     16950     16951
     16951     16952     16951     16953     16953     16954     16953     16955
     16953     16956     16956     16957     16956     16979     16979     16980
     16979     16981     16956     16958     16958     16959     16958     16968
     16968     16973     16973     16974     16973     16975     16973     16976
     16976     16977     16976     16978     16976     16979     16968     16969
     16969     16970     16969     16971     16969     16972     16958     16960
     16960     16961     16960     16962     16960     16963     16963     16964
     16963     16965     16963     16966     16966     16967     16966     16968
     16966     16992     16992     16993     16992     16994     16994     16995
     16994     16996     16994     16997     16992     16998     16998     16999
     16998     17000     16998     17001     17001     17002     17001     17003
     17001     17004     17004     17005     17004     17006     17004     17007
     17007     17008     17007     17009     17009     17010     17009     17011
     17009     17012     17007     17013     17013     17014     17013     17015
     17013     17016     17017     17019     17017     17018     17019     17020
     17017     17063     17063     17064     17063     17065     17063     17060
     17060     17061     17060     17062     17017     17021     17021     17022
     17021     17023     17021     17024     17024     17055     17055     17060
     17055     17056     17056     17057     17056     17058     17056     17059
     17024     17025     17025     17026     17025     17027     17027     17028
     17027     17029     17027     17030     17030     17031     17030     17053
     17053     17054     17053     17055     17030     17032     17032     17033
     17032     17042     17042     17047     17047     17048     17047     17049
     17047     17050     17050     17051     17050     17052     17050     17053
     17042     17043     17043     17044     17043     17045     17043     17046
     17032     17034     17034     17035     17034     17036     17034     17037
     17037     17038     17037     17039     17037     17040     17040     17041
     17040     17042     17040     17066     17066     17067     17066     17068
     17068     17069     17068     17070     17068     17071     17066     17072
     17072     17073     17072     17074     17072     17075     17075     17076
     17075     17077     17075     17078     17078     17079     17078     17080
     17078     17081     17081     17082     17081     17083     17083     17084
     17083     17085     17083     17086     17081     17087     17087     17088
     17087     17089     17087     17090     17091     17092     17091     17093
     17091     17094     17091     17095     17095     17096     17095     17097
     17095     17098     17098     17099     17098     17100     17098     17104
     17106     17105     17104     17101     17101     17105     17101     17102
     17101     17103     17106     17107     17106     17108     17106     17109
     17109     17110     17109     17117     17109     17111     17117     17118
     17117     17119     17117     17120     17111     17112     17112     17114
     17112     17113     17114     17115     17114     17116     17114     17126
     17126     17127     17126     17128     17126     17129     17129     17130
     17129     17131     17129     17132     17132     17133     17132     17134
     17134     17135     17134     17136     17136     17137     17136     17138
     17136     17139     17139     17140     17139     17141     17141     17142
     17141     17143     17143     17144     17143     17145     17143     17146
     17146     17147     17146     17148     17148     17149     17148     17150
     17150     17151     17150     17152     17150     17153     17153     17154
     17153     17155     17155     17156     17155     17157     17157     17158
     17157     17159     17157     17160     17160     17161     17160     17162
     17160     17163     17163     17164     17163     17165     17163     17166
     17166     17167     17166     17168     17166     17169     17169     17170
     17169     17171     17169     17172     17120     17121     17121     17123
     17121     17122     17123     17124     17123     17125     17123     17173
     17173     17174     17173     17175     17173     17176     17176     17177
     17176     17178     17176     17179     17179     17180     17179     17181
     17179     17182     17182     17183     17182     17184     17182     17185
     17185     17186     17185     17187     17185     17188     17188     17189
     17188     17190     17188     17191     17191     17192     17191     17193
     17191     17194     17194     17195     17194     17196     17194     17197
     17197     17198     17197     17199     17197     17200     17200     17201
     17200     17202     17200     17203     17203     17204     17203     17205
     17203     17206     17206     17207     17206     17208     17206     17209
     17209     17210     17209     17211     17209     17212     17212     17213
     17212     17214     17212     17215     17215     17216     17215     17217
     17215     17218     17218     17219     17218     17220     17218     17221
     17222     17224     17222     17223     17224     17225     17222     17268
     17268     17269     17268     17270     17268     17265     17265     17266
     17265     17267     17222     17226     17226     17227     17226     17228
     17226     17229     17229     17260     17260     17265     17260     17261
     17261     17262     17261     17263     17261     17264     17229     17230
     17230     17231     17230     17232     17232     17233     17232     17234
     17232     17235     17235     17236     17235     17258     17258     17259
     17258     17260     17235     17237     17237     17238     17237     17247
     17247     17252     17252     17253     17252     17254     17252     17255
     17255     17256     17255     17257     17255     17258     17247     17248
     17248     17249     17248     17250     17248     17251     17237     17239
     17239     17240     17239     17241     17239     17242     17242     17243
     17242     17244     17242     17245     17245     17246     17245     17247
     17245     17271     17271     17272     17271     17273     17273     17274
     17273     17275     17273     17276     17271     17277     17277     17278
     17277     17279     17277     17280     17280     17281     17280     17282
     17280     17283     17283     17284     17283     17285     17283     17286
     17286     17287     17286     17288     17288     17289     17288     17290
     17288     17291     17286     17292     17292     17293     17292     17294
     17292     17295     17296     17297     17296     17298     17296     17299
     17296     17300     17300     17301     17300     17302     17300     17303
     17303     17304     17303     17305     17303     17309     17311     17310
     17309     17306     17306     17310     17306     17307     17306     17308
     17311     17312     17311     17313     17311     17314     17314     17315
     17314     17322     17314     17316     17322     17323     17322     17324
     17322     17325     17316     17317     17317     17319     17317     17318
     17319     17320     17319     17321     17319     17331     17331     17332
     17331     17333     17331     17334     17334     17335     17334     17336
     17334     17337     17337     17338     17337     17339     17337     17340
     17340     17341     17340     17342     17340     17343     17343     17344
     17343     17345     17343     17346     17346     17347     17346     17348
     17346     17349     17349     17350     17349     17351     17351     17352
     17351     17353     17353     17354     17353     17355     17353     17356
     17356     17357     17356     17358     17356     17359     17359     17360
     17359     17361     17359     17362     17362     17363     17362     17364
     17362     17365     17365     17366     17365     17367     17365     17368
     17368     17369     17368     17370     17368     17371     17371     17372
     17371     17373     17371     17374     17374     17375     17374     17376
     17374     17377     17325     17326     17326     17328     17326     17327
     17328     17329     17328     17330     17328     17378     17378     17379
     17378     17380     17378     17381     17381     17382     17381     17383
     17381     17384     17384     17385     17384     17386     17384     17387
     17387     17388     17387     17389     17387     17390     17390     17391
     17390     17392     17390     17393     17393     17394     17393     17395
     17393     17396     17396     17397     17396     17398     17396     17399
     17399     17400     17399     17401     17399     17402     17402     17403
     17402     17404     17402     17405     17405     17406     17405     17407
     17405     17408     17408     17409     17408     17410     17408     17411
     17411     17412     17411     17413     17411     17414     17414     17415
     17414     17416     17414     17417     17417     17418     17417     17419
     17417     17420     17420     17421     17420     17422     17420     17423
     17423     17424     17423     17425     17423     17426     17427     17431
     17427     17435     17427     17439     17431     17432     17431     17433
     17431     17434     17435     17436     17435     17437     17435     17438
     17439     17440     17439     17441     17439     17442     17427     17428
     17428     17429     17428     17430     17428     17443     17443     17444
     17443     17445     17443     17449     17450     17451     17449     17446
     17446     17450     17446     17447     17446     17448     17451     17452
     17451     17453     17451     17454     17454     17455     17454     17462
     17454     17456     17462     17463     17462     17464     17462     17465
     17456     17457     17457     17459     17457     17458     17459     17460
     17459     17461     17459     17471     17471     17472     17471     17473
     17471     17474     17474     17475     17474     17476     17474     17477
     17477     17478     17477     17479     17477     17480     17480     17481
     17480     17482     17480     17483     17483     17484     17483     17485
     17483     17486     17486     17487     17486     17488     17486     17489
     17489     17490     17489     17491     17491     17492     17491     17493
     17493     17494     17493     17495     17493     17496     17496     17497
     17496     17498     17496     17499     17499     17500     17499     17501
     17499     17502     17502     17503     17502     17504     17502     17505
     17505     17506     17505     17507     17505     17508     17508     17509
     17508     17510     17508     17511     17511     17512     17511     17513
     17511     17514     17514     17515     17514     17516     17514     17517
     17465     17466     17466     17468     17466     17467     17468     17469
     17468     17470     17468     17518     17518     17519     17518     17520
     17518     17521     17521     17522     17521     17523     17521     17524
     17524     17525     17524     17526     17524     17527     17527     17528
     17527     17529     17527     17530     17530     17531     17530     17532
     17530     17533     17533     17534     17533     17535     17533     17536
     17536     17537     17536     17538     17536     17539     17539     17540
     17539     17541     17539     17542     17542     17543     17542     17544
     17542     17545     17545     17546     17545     17547     17545     17548
     17548     17549     17548     17550     17548     17551     17551     17552
     17551     17553     17551     17554     17554     17555     17554     17556
     17554     17557     17557     17558     17557     17559     17557     17560
     17561     17562     17561     17563     17561     17564     17561     17565
     17565     17566     17565     17567     17565     17568     17568     17569
     17568     17570     17568     17574     17576     17575     17574     17571
     17571     17575     17571     17572     17571     17573     17576     17577
     17576     17578     17576     17579     17579     17580     17579     17587
     17579     17581     17587     17588     17587     17589     17587     17590
     17581     17582     17582     17584     17582     17583     17584     17585
     17584     17586     17584     17596     17596     17597     17596     17598
     17596     17599     17599     17600     17599     17601     17599     17602
     17602     17603     17602     17604     17604     17605     17604     17606
     17606     17607     17606     17608     17606     17609     17609     17610
     17609     17611     17611     17612     17611     17613     17613     17614
     17613     17615     17613     17616     17616     17617     17616     17618
     17618     17619     17618     17620     17620     17621     17620     17622
     17620     17623     17623     17624     17623     17625     17625     17626
     17625     17627     17627     17628     17627     17629     17627     17630
     17630     17631     17630     17632     17630     17633     17633     17634
     17633     17635     17633     17636     17636     17637     17636     17638
     17636     17639     17639     17640     17639     17641     17639     17642
     17590     17591     17591     17593     17591     17592     17593     17594
     17593     17595     17593     17643     17643     17644     17643     17645
     17643     17646     17646     17647     17646     17648     17646     17649
     17649     17650     17649     17651     17649     17652     17652     17653
     17652     17654     17652     17655     17655     17656     17655     17657
     17655     17658     17658     17659     17658     17660     17658     17661
     17661     17662     17661     17663     17661     17664     17664     17665
     17664     17666     17664     17667     17667     17668     17667     17669
     17667     17670     17670     17671     17670     17672     17670     17673
     17673     17674     17673     17675     17673     17676     17676     17677
     17676     17678     17676     17679     17679     17680     17679     17681
     17679     17682     17682     17683     17682     17684     17682     17685
     17685     17686     17685     17687     17685     17688     17688     17689
     17688     17690     17688     17691     17692     17696     17692     17700
     17692     17704     17696     17697     17696     17698     17696     17699
     17700     17701     17700     17702     17700     17703     17704     17705
     17704     17706     17704     17707     17692     17693     17693     17694
     17693     17695     17693     17708     17708     17709     17708     17710
     17708     17714     17715     17716     17714     17711     17711     17715
     17711     17712     17711     17713     17716     17717     17716     17718
     17716     17719     17719     17720     17719     17727     17719     17721
     17727     17728     17727     17729     17727     17730     17721     17722
     17722     17724     17722     17723     17724     17725     17724     17726
     17724     17736     17736     17737     17736     17738     17736     17739
     17739     17740     17739     17741     17739     17742     17742     17743
     17742     17744     17744     17745     17744     17746     17746     17747
     17746     17748     17746     17749     17749     17750     17749     17751
     17751     17752     17751     17753     17753     17754     17753     17755
     17753     17756     17756     17757     17756     17758     17758     17759
     17758     17760     17760     17761     17760     17762     17760     17763
     17763     17764     17763     17765     17765     17766     17765     17767
     17767     17768     17767     17769     17767     17770     17770     17771
     17770     17772     17770     17773     17773     17774     17773     17775
     17773     17776     17776     17777     17776     17778     17776     17779
     17779     17780     17779     17781     17779     17782     17730     17731
     17731     17733     17731     17732     17733     17734     17733     17735
     17733     17783     17783     17784     17783     17785     17783     17786
     17786     17787     17786     17788     17786     17789     17789     17790
     17789     17791     17789     17792     17792     17793     17792     17794
     17792     17795     17795     17796     17795     17797     17795     17798
     17798     17799     17798     17800     17798     17801     17801     17802
     17801     17803     17801     17804     17804     17805     17804     17806
     17804     17807     17807     17808     17807     17809     17807     17810
     17810     17811     17810     17812     17810     17813     17813     17814
     17813     17815     17813     17816     17816     17817     17816     17818
     17816     17819     17819     17820     17819     17821     17819     17822
     17822     17823     17822     17824     17822     17825     17825     17826
     17825     17827     17825     17828     17828     17829     17828     17830
     17828     17831     17832     17833     17832     17834     17832     17835
     17832     17836     17840     17838     17838     17836     17838     17839
     17836     17837     17836     17841     17849     17848     17841     17842
     17841     17843     17841     17847     17847     17844     17844     17848
     17844     17845     17844     17846     17849     17850     17849     17851
     17849     17852     17852     17853     17852     17860     17852     17854
     17860     17861     17860     17862     17860     17863     17854     17855
     17855     17857     17855     17856     17857     17858     17857     17859
     17857     17869     17869     17870     17869     17871     17869     17872
     17872     17873     17872     17874     17872     17875     17875     17876
     17875     17877     17877     17878     17877     17879     17879     17880
     17879     17881     17879     17882     17882     17883     17882     17884
     17884     17885     17884     17886     17886     17887     17886     17888
     17886     17889     17889     17890     17889     17891     17891     17892
     17891     17893     17893     17894     17893     17895     17893     17896
     17896     17897     17896     17898     17898     17899     17898     17900
     17900     17901     17900     17902     17900     17903     17903     17904
     17903     17905     17903     17906     17906     17907     17906     17908
     17906     17909     17909     17910     17909     17911     17909     17912
     17912     17913     17912     17914     17912     17915     17863     17864
     17864     17866     17864     17865     17866     17867     17866     17868
     17866     17916     17916     17917     17916     17918     17916     17919
     17919     17920     17919     17921     17919     17922     17922     17923
     17922     17924     17922     17925     17925     17926     17925     17927
     17925     17928     17928     17929     17928     17930     17928     17931
     17931     17932     17931     17933     17931     17934     17934     17935
     17934     17936     17934     17937     17937     17938     17937     17939
     17937     17940     17940     17941     17940     17942     17940     17943
     17943     17944     17943     17945     17943     17946     17946     17947
     17946     17948     17946     17949     17949     17950     17949     17951
     17949     17952     17952     17953     17952     17954     17952     17955
     17955     17956     17955     17957     17955     17958     17958     17959
     17958     17960     17958     17961     17961     17962     17961     17963
     17961     17964     17985     17986     17985     17981     17985     17965
     17985     17990     17965     17966     17965     17967     17967     17968
     17965     17969     17969     17970     17969     17971     17971     17972
     17969     17973     17973     17974     17973     17975     17975     17976
     17973     17977     17977     17978     17977     17981     17981     17982
     17981     17983     17983     17984     17977     17979     17979     17980
     17990     17987     17987     17991     17987     17988     17987     17989
     17991     17992     17992     17993     17992     17994     17992     17995
     17995     17996     17995     18003     17995     17997     18003     18004
     18003     18005     18003     18006     17997     17998     17998     18000
     17998     17999     18000     18001     18000     18002     18000     18012
     18012     18013     18012     18014     18012     18015     18015     18016
     18015     18017     18015     18018     18018     18019     18018     18020
     18020     18021     18020     18022     18022     18023     18022     18024
     18022     18025     18025     18026     18025     18027     18027     18028
     18027     18029     18029     18030     18029     18031     18029     18032
     18032     18033     18032     18034     18034     18035     18034     18036
     18036     18037     18036     18038     18036     18039     18039     18040
     18039     18041     18041     18042     18041     18043     18043     18044
     18043     18045     18043     18046     18046     18047     18046     18048
     18046     18049     18049     18050     18049     18051     18049     18052
     18052     18053     18052     18054     18052     18055     18055     18056
     18055     18057     18055     18058     18006     18007     18007     18009
     18007     18008     18009     18010     18009     18011     18009     18059
     18059     18060     18059     18061     18059     18062     18062     18063
     18062     18064     18062     18065     18065     18066     18065     18067
     18065     18068     18068     18069     18068     18070     18068     18071
     18071     18072     18071     18073     18071     18074     18074     18075
     18074     18076     18074     18077     18077     18078     18077     18079
     18077     18080     18080     18081     18080     18082     18080     18083
     18083     18084     18083     18085     18083     18086     18086     18087
     18086     18088     18086     18089     18089     18090     18089     18091
     18089     18092     18092     18093     18092     18094     18092     18095
     18095     18096     18095     18097     18095     18098     18098     18099
     18098     18100     18098     18101     18101     18102     18101     18103
     18101     18104     18104     18105     18104     18106     18104     18107
     18108     18109     18108     18110     18108     18111     18108     18112
     18112     18113     18112     18114     18112     18115     18115     18116
     18115     18117     18115     18121     18123     18122     18121     18118
     18118     18122     18118     18119     18118     18120     18123     18124
     18123     18125     18123     18126     18126     18127     18126     18134
     18126     18128     18134     18135     18134     18136     18134     18137
     18128     18129     18129     18131     18129     18130     18131     18132
     18131     18133     18131     18143     18143     18144     18143     18145
     18143     18146     18146     18147     18146     18148     18146     18149
     18149     18150     18149     18151     18151     18152     18151     18153
     18153     18154     18153     18155     18153     18156     18156     18157
     18156     18158     18158     18159     18158     18160     18160     18161
     18160     18162     18160     18163     18163     18164     18163     18165
     18165     18166     18165     18167     18167     18168     18167     18169
     18167     18170     18170     18171     18170     18172     18172     18173
     18172     18174     18174     18175     18174     18176     18174     18177
     18177     18178     18177     18179     18177     18180     18180     18181
     18180     18182     18180     18183     18183     18184     18183     18185
     18183     18186     18186     18187     18186     18188     18186     18189
     18137     18138     18138     18140     18138     18139     18140     18141
     18140     18142     18140     18190     18190     18191     18190     18192
     18190     18193     18193     18194     18193     18195     18193     18196
     18196     18197     18196     18198     18196     18199     18199     18200
     18199     18201     18199     18202     18202     18203     18202     18204
     18202     18205     18205     18206     18205     18207     18205     18208
     18208     18209     18208     18210     18208     18211     18211     18212
     18211     18213     18211     18214     18214     18215     18214     18216
     18214     18217     18217     18218     18217     18219     18217     18220
     18220     18221     18220     18222     18220     18223     18223     18224
     18223     18225     18223     18226     18226     18227     18226     18228
     18226     18229     18229     18230     18229     18231     18229     18232
     18232     18233     18232     18234     18232     18235     18235     18236
     18235     18237     18235     18238     18239     18240     18239     18241
     18239     18242     18239     18243     18243     18244     18243     18245
     18243     18246     18246     18247     18246     18248     18246     18252
     18254     18253     18252     18249     18249     18253     18249     18250
     18249     18251     18254     18255     18254     18256     18254     18257
     18257     18258     18257     18265     18257     18259     18265     18266
     18265     18267     18265     18268     18259     18260     18260     18262
     18260     18261     18262     18263     18262     18264     18262     18274
     18274     18275     18274     18276     18274     18277     18277     18278
     18277     18279     18277     18280     18280     18281     18280     18282
     18282     18283     18282     18284     18284     18285     18284     18286
     18284     18287     18287     18288     18287     18289     18289     18290
     18289     18291     18291     18292     18291     18293     18291     18294
     18294     18295     18294     18296     18296     18297     18296     18298
     18298     18299     18298     18300     18298     18301     18301     18302
     18301     18303     18303     18304     18303     18305     18305     18306
     18305     18307     18305     18308     18308     18309     18308     18310
     18308     18311     18311     18312     18311     18313     18311     18314
     18314     18315     18314     18316     18314     18317     18317     18318
     18317     18319     18317     18320     18268     18269     18269     18271
     18269     18270     18271     18272     18271     18273     18271     18321
     18321     18322     18321     18323     18321     18324     18324     18325
     18324     18326     18324     18327     18327     18328     18327     18329
     18327     18330     18330     18331     18330     18332     18330     18333
     18333     18334     18333     18335     18333     18336     18336     18337
     18336     18338     18336     18339     18339     18340     18339     18341
     18339     18342     18342     18343     18342     18344     18342     18345
     18345     18346     18345     18347     18345     18348     18348     18349
     18348     18350     18348     18351     18351     18352     18351     18353
     18351     18354     18354     18355     18354     18356     18354     18357
     18357     18358     18357     18359     18357     18360     18360     18361
     18360     18362     18360     18363     18363     18364     18363     18365
     18363     18366     18366     18367     18366     18368     18366     18369
     18445     18446     18445     18447     18445     18448     18445     18442
     18442     18443     18442     18444     18442     18439     18439     18440
     18439     18441     18439     18436     18436     18437     18436     18438
     18436     18433     18433     18434     18433     18435     18433     18430
     18430     18431     18430     18432     18430     18427     18427     18428
     18427     18429     18427     18424     18424     18425     18424     18426
     18424     18421     18421     18422     18421     18423     18421     18418
     18418     18419     18418     18420     18418     18415     18415     18416
     18415     18417     18415     18412     18412     18413     18412     18414
     18412     18409     18409     18410     18409     18411     18409     18407
     18407     18408     18405     18406     18405     18401     18401     18402
     18401     18403     18403     18404     18401     18399     18399     18400
     18399     18394     18394     18395     18394     18396     18394     18392
     18392     18389     18393     18389     18390     18389     18391     18389
     18393     18386     18386     18387     18386     18388     18386     18383
     18383     18384     18383     18385     18383     18370     18370     18379
     18370     18375     18370     18371     18379     18380     18379     18381
     18379     18382     18375     18376     18375     18377     18375     18378
     18371     18372     18371     18373     18371     18374     18399     18397
     18397     18398     18397     18449     18449     18451     18451     18452
     18451     18453     18451     18454     18454     18455     18454     18456
     18454     18457     18457     18458     18457     18459     18457     18460
     18460     18461     18460     18462     18460     18463     18463     18464
     18463     18465     18463     18466     18466     18467     18466     18468
     18466     18469     18469     18470     18469     18471     18469     18472
     18472     18473     18474     18475     18474     18476     18476     18477
     18476     18478     18476     18479     18479     18480     18479     18481
     18479     18482     18482     18483     18482     18484     18482     18485
     18485     18486     18485     18487     18485     18488     18488     18489
     18488     18490     18488     18491     18491     18492     18491     18493
     18491     18494     18494     18495     18494     18496     18494     18497
     18497     18498     18497     18499     18497     18500     18405     18407
     18472     18474     18449     18450     18576     18577     18576     18578
     18576     18579     18576     18573     18573     18574     18573     18575
     18573     18570     18570     18571     18570     18572     18570     18567
     18567     18568     18567     18569     18567     18564     18564     18565
     18564     18566     18564     18561     18561     18562     18561     18563
     18561     18558     18558     18559     18558     18560     18558     18555
     18555     18556     18555     18557     18555     18552     18552     18553
     18552     18554     18552     18549     18549     18550     18549     18551
     18549     18546     18546     18547     18546     18548     18546     18543
     18543     18544     18543     18545     18543     18540     18540     18541
     18540     18542     18540     18538     18538     18539     18536     18537
     18536     18532     18532     18533     18532     18534     18534     18535
     18532     18530     18530     18531     18530     18525     18525     18526
     18525     18527     18525     18523     18523     18520     18524     18520
     18521     18520     18522     18520     18524     18517     18517     18518
     18517     18519     18517     18514     18514     18515     18514     18516
     18514     18501     18501     18510     18501     18506     18501     18502
     18510     18511     18510     18512     18510     18513     18506     18507
     18506     18508     18506     18509     18502     18503     18502     18504
     18502     18505     18530     18528     18528     18529     18528     18580
     18580     18582     18582     18583     18582     18584     18582     18585
     18585     18586     18585     18587     18585     18588     18588     18589
     18588     18590     18588     18591     18591     18592     18591     18593
     18591     18594     18594     18595     18594     18596     18594     18597
     18597     18598     18597     18599     18597     18600     18600     18601
     18600     18602     18600     18603     18603     18604     18605     18606
     18605     18607     18607     18608     18607     18609     18607     18610
     18610     18611     18610     18612     18610     18613     18613     18614
     18613     18615     18613     18616     18616     18617     18616     18618
     18616     18619     18619     18620     18619     18621     18619     18622
     18622     18623     18622     18624     18622     18625     18625     18626
     18625     18627     18625     18628     18628     18629     18628     18630
     18628     18631     18536     18538     18603     18605     18580     18581
     18632     18634     18632     18633     18634     18635     18632     18678
     18678     18679     18678     18680     18678     18675     18675     18676
     18675     18677     18632     18636     18636     18637     18636     18638
     18636     18639     18639     18670     18670     18675     18670     18671
     18671     18672     18671     18673     18671     18674     18639     18640
     18640     18641     18640     18642     18642     18643     18642     18644
     18642     18645     18645     18646     18645     18668     18668     18669
     18668     18670     18645     18647     18647     18648     18647     18657
     18657     18662     18662     18663     18662     18664     18662     18665
     18665     18666     18665     18667     18665     18668     18657     18658
     18658     18659     18658     18660     18658     18661     18647     18649
     18649     18650     18649     18651     18649     18652     18652     18653
     18652     18654     18652     18655     18655     18656     18655     18657
     18655     18681     18681     18682     18681     18683     18683     18684
     18683     18685     18683     18686     18681     18687     18687     18688
     18687     18689     18687     18690     18690     18691     18690     18692
     18690     18693     18693     18694     18693     18695     18693     18696
     18696     18697     18696     18698     18698     18699     18698     18700
     18698     18701     18696     18702     18702     18703     18702     18704
     18702     18705     18706     18707     18706     18708     18706     18709
     18706     18710     18710     18711     18710     18712     18710     18713
     18713     18714     18713     18715     18713     18719     18721     18720
     18719     18716     18716     18720     18716     18717     18716     18718
     18721     18722     18721     18723     18721     18724     18724     18725
     18724     18732     18724     18726     18732     18733     18732     18734
     18732     18735     18726     18727     18727     18729     18727     18728
     18729     18730     18729     18731     18729     18741     18741     18742
     18741     18743     18741     18744     18744     18745     18744     18746
     18744     18747     18747     18748     18747     18749     18749     18750
     18749     18751     18751     18752     18751     18753     18751     18754
     18754     18755     18754     18756     18756     18757     18756     18758
     18758     18759     18758     18760     18758     18761     18761     18762
     18761     18763     18763     18764     18763     18765     18765     18766
     18765     18767     18765     18768     18768     18769     18768     18770
     18770     18771     18770     18772     18772     18773     18772     18774
     18772     18775     18775     18776     18775     18777     18775     18778
     18778     18779     18778     18780     18778     18781     18781     18782
     18781     18783     18781     18784     18784     18785     18784     18786
     18784     18787     18735     18736     18736     18738     18736     18737
     18738     18739     18738     18740     18738     18788     18788     18789
     18788     18790     18788     18791     18791     18792     18791     18793
     18791     18794     18794     18795     18794     18796     18794     18797
     18797     18798     18797     18799     18797     18800     18800     18801
     18800     18802     18800     18803     18803     18804     18803     18805
     18803     18806     18806     18807     18806     18808     18806     18809
     18809     18810     18809     18811     18809     18812     18812     18813
     18812     18814     18812     18815     18815     18816     18815     18817
     18815     18818     18818     18819     18818     18820     18818     18821
     18821     18822     18821     18823     18821     18824     18824     18825
     18824     18826     18824     18827     18827     18828     18827     18829
     18827     18830     18830     18831     18830     18832     18830     18833
     18833     18834     18833     18835     18833     18836     18837     18839
     18837     18838     18839     18840     18837     18883     18883     18884
     18883     18885     18883     18880     18880     18881     18880     18882
     18837     18841     18841     18842     18841     18843     18841     18844
     18844     18875     18875     18880     18875     18876     18876     18877
     18876     18878     18876     18879     18844     18845     18845     18846
     18845     18847     18847     18848     18847     18849     18847     18850
     18850     18851     18850     18873     18873     18874     18873     18875
     18850     18852     18852     18853     18852     18862     18862     18867
     18867     18868     18867     18869     18867     18870     18870     18871
     18870     18872     18870     18873     18862     18863     18863     18864
     18863     18865     18863     18866     18852     18854     18854     18855
     18854     18856     18854     18857     18857     18858     18857     18859
     18857     18860     18860     18861     18860     18862     18860     18886
     18886     18887     18886     18888     18888     18889     18888     18890
     18888     18891     18886     18892     18892     18893     18892     18894
     18892     18895     18895     18896     18895     18897     18895     18898
     18898     18899     18898     18900     18898     18901     18901     18902
     18901     18903     18903     18904     18903     18905     18903     18906
     18901     18907     18907     18908     18907     18909     18907     18910
     18911     18915     18911     18919     18911     18923     18915     18916
     18915     18917     18915     18918     18919     18920     18919     18921
     18919     18922     18923     18924     18923     18925     18923     18926
     18911     18912     18912     18913     18912     18914     18912     18927
     18927     18928     18927     18929     18927     18933     18934     18935
     18933     18930     18930     18934     18930     18931     18930     18932
     18935     18936     18935     18937     18935     18938     18938     18939
     18938     18946     18938     18940     18946     18947     18946     18948
     18946     18949     18940     18941     18941     18943     18941     18942
     18943     18944     18943     18945     18943     18955     18955     18956
     18955     18957     18955     18958     18958     18959     18958     18960
     18958     18961     18961     18962     18961     18963     18961     18964
     18964     18965     18964     18966     18964     18967     18967     18968
     18967     18969     18967     18970     18970     18971     18970     18972
     18970     18973     18973     18974     18973     18975     18975     18976
     18975     18977     18977     18978     18977     18979     18977     18980
     18980     18981     18980     18982     18980     18983     18983     18984
     18983     18985     18983     18986     18986     18987     18986     18988
     18986     18989     18989     18990     18989     18991     18989     18992
     18992     18993     18992     18994     18992     18995     18995     18996
     18995     18997     18995     18998     18998     18999     18998     19000
     18998     19001     18949     18950     18950     18952     18950     18951
     18952     18953     18952     18954     18952     19002     19002     19003
     19002     19004     19002     19005     19005     19006     19005     19007
     19005     19008     19008     19009     19008     19010     19008     19011
     19011     19012     19011     19013     19011     19014     19014     19015
     19014     19016     19014     19017     19017     19018     19017     19019
     19017     19020     19020     19021     19020     19022     19020     19023
     19023     19024     19023     19025     19023     19026     19026     19027
     19026     19028     19026     19029     19029     19030     19029     19031
     19029     19032     19032     19033     19032     19034     19032     19035
     19035     19036     19035     19037     19035     19038     19038     19039
     19038     19040     19038     19041     19041     19042     19041     19043
     19041     19044     19045     19047     19045     19046     19047     19048
     19045     19091     19091     19092     19091     19093     19091     19088
     19088     19089     19088     19090     19045     19049     19049     19050
     19049     19051     19049     19052     19052     19083     19083     19088
     19083     19084     19084     19085     19084     19086     19084     19087
     19052     19053     19053     19054     19053     19055     19055     19056
     19055     19057     19055     19058     19058     19059     19058     19081
     19081     19082     19081     19083     19058     19060     19060     19061
     19060     19070     19070     19075     19075     19076     19075     19077
     19075     19078     19078     19079     19078     19080     19078     19081
     19070     19071     19071     19072     19071     19073     19071     19074
     19060     19062     19062     19063     19062     19064     19062     19065
     19065     19066     19065     19067     19065     19068     19068     19069
     19068     19070     19068     19094     19094     19095     19094     19096
     19096     19097     19096     19098     19096     19099     19094     19100
     19100     19101     19100     19102     19100     19103     19103     19104
     19103     19105     19103     19106     19106     19107     19106     19108
     19106     19109     19109     19110     19109     19111     19111     19112
     19111     19113     19111     19114     19109     19115     19115     19116
     19115     19117     19115     19118     19119     19123     19119     19127
     19119     19131     19123     19124     19123     19125     19123     19126
     19127     19128     19127     19129     19127     19130     19131     19132
     19131     19133     19131     19134     19119     19120     19120     19121
     19120     19122     19120     19135     19135     19136     19135     19137
     19135     19141     19142     19143     19141     19138     19138     19142
     19138     19139     19138     19140     19143     19144     19143     19145
     19143     19146     19146     19147     19146     19154     19146     19148
     19154     19155     19154     19156     19154     19157     19148     19149
     19149     19151     19149     19150     19151     19152     19151     19153
     19151     19163     19163     19164     19163     19165     19163     19166
     19166     19167     19166     19168     19166     19169     19169     19170
     19169     19171     19171     19172     19171     19173     19173     19174
     19173     19175     19173     19176     19176     19177     19176     19178
     19178     19179     19178     19180     19180     19181     19180     19182
     19180     19183     19183     19184     19183     19185     19185     19186
     19185     19187     19187     19188     19187     19189     19187     19190
     19190     19191     19190     19192     19192     19193     19192     19194
     19194     19195     19194     19196     19194     19197     19197     19198
     19197     19199     19197     19200     19200     19201     19200     19202
     19200     19203     19203     19204     19203     19205     19203     19206
     19206     19207     19206     19208     19206     19209     19157     19158
     19158     19160     19158     19159     19160     19161     19160     19162
     19160     19210     19210     19211     19210     19212     19210     19213
     19213     19214     19213     19215     19213     19216     19216     19217
     19216     19218     19216     19219     19219     19220     19219     19221
     19219     19222     19222     19223     19222     19224     19222     19225
     19225     19226     19225     19227     19225     19228     19228     19229
     19228     19230     19228     19231     19231     19232     19231     19233
     19231     19234     19234     19235     19234     19236     19234     19237
     19237     19238     19237     19239     19237     19240     19240     19241
     19240     19242     19240     19243     19243     19244     19243     19245
     19243     19246     19246     19247     19246     19248     19246     19249
     19249     19250     19249     19251     19249     19252     19252     19253
     19252     19254     19252     19255     19255     19256     19255     19257
     19255     19258     19259     19260     19259     19261     19259     19262
     19259     19263     19267     19265     19265     19263     19265     19266
     19263     19264     19263     19268     19276     19275     19268     19269
     19268     19270     19268     19274     19274     19271     19271     19275
     19271     19272     19271     19273     19276     19277     19276     19278
     19276     19279     19279     19280     19279     19287     19279     19281
     19287     19288     19287     19289     19287     19290     19281     19282
     19282     19284     19282     19283     19284     19285     19284     19286
     19284     19296     19296     19297     19296     19298     19296     19299
     19299     19300     19299     19301     19299     19302     19302     19303
     19302     19304     19304     19305     19304     19306     19306     19307
     19306     19308     19306     19309     19309     19310     19309     19311
     19311     19312     19311     19313     19313     19314     19313     19315
     19313     19316     19316     19317     19316     19318     19318     19319
     19318     19320     19320     19321     19320     19322     19320     19323
     19323     19324     19323     19325     19325     19326     19325     19327
     19327     19328     19327     19329     19327     19330     19330     19331
     19330     19332     19330     19333     19333     19334     19333     19335
     19333     19336     19336     19337     19336     19338     19336     19339
     19339     19340     19339     19341     19339     19342     19290     19291
     19291     19293     19291     19292     19293     19294     19293     19295
     19293     19343     19343     19344     19343     19345     19343     19346
     19346     19347     19346     19348     19346     19349     19349     19350
     19349     19351     19349     19352     19352     19353     19352     19354
     19352     19355     19355     19356     19355     19357     19355     19358
     19358     19359     19358     19360     19358     19361     19361     19362
     19361     19363     19361     19364     19364     19365     19364     19366
     19364     19367     19367     19368     19367     19369     19367     19370
     19370     19371     19370     19372     19370     19373     19373     19374
     19373     19375     19373     19376     19376     19377     19376     19378
     19376     19379     19379     19380     19379     19381     19379     19382
     19382     19383     19382     19384     19382     19385     19385     19386
     19385     19387     19385     19388     19388     19389     19388     19390
     19388     19391     19467     19468     19467     19469     19467     19470
     19467     19464     19464     19465     19464     19466     19464     19461
     19461     19462     19461     19463     19461     19458     19458     19459
     19458     19460     19458     19455     19455     19456     19455     19457
     19455     19452     19452     19453     19452     19454     19452     19449
     19449     19450     19449     19451     19449     19446     19446     19447
     19446     19448     19446     19443     19443     19444     19443     19445
     19443     19440     19440     19441     19440     19442     19440     19437
     19437     19438     19437     19439     19437     19434     19434     19435
     19434     19436     19434     19431     19431     19432     19431     19433
     19431     19429     19429     19430     19427     19428     19427     19423
     19423     19424     19423     19425     19425     19426     19423     19421
     19421     19422     19421     19416     19416     19417     19416     19418
     19416     19414     19414     19411     19415     19411     19412     19411
     19413     19411     19415     19408     19408     19409     19408     19410
     19408     19405     19405     19406     19405     19407     19405     19392
     19392     19401     19392     19397     19392     19393     19401     19402
     19401     19403     19401     19404     19397     19398     19397     19399
     19397     19400     19393     19394     19393     19395     19393     19396
     19421     19419     19419     19420     19419     19471     19471     19473
     19473     19474     19473     19475     19473     19476     19476     19477
     19476     19478     19476     19479     19479     19480     19479     19481
     19479     19482     19482     19483     19482     19484     19482     19485
     19485     19486     19485     19487     19485     19488     19488     19489
     19488     19490     19488     19491     19491     19492     19491     19493
     19491     19494     19494     19495     19496     19497     19496     19498
     19498     19499     19498     19500     19498     19501     19501     19502
     19501     19503     19501     19504     19504     19505     19504     19506
     19504     19507     19507     19508     19507     19509     19507     19510
     19510     19511     19510     19512     19510     19513     19513     19514
     19513     19515     19513     19516     19516     19517     19516     19518
     19516     19519     19519     19520     19519     19521     19519     19522
     19427     19429     19494     19496     19471     19472     19523     19524
     19523     19525     19523     19526     19523     19527     19531     19529
     19529     19527     19529     19530     19527     19528     19527     19532
     19540     19539     19532     19533     19532     19534     19532     19538
     19538     19535     19535     19539     19535     19536     19535     19537
     19540     19541     19540     19542     19540     19543     19543     19544
     19543     19551     19543     19545     19551     19552     19551     19553
     19551     19554     19545     19546     19546     19548     19546     19547
     19548     19549     19548     19550     19548     19560     19560     19561
     19560     19562     19560     19563     19563     19564     19563     19565
     19563     19566     19566     19567     19566     19568     19568     19569
     19568     19570     19570     19571     19570     19572     19570     19573
     19573     19574     19573     19575     19575     19576     19575     19577
     19577     19578     19577     19579     19577     19580     19580     19581
     19580     19582     19582     19583     19582     19584     19584     19585
     19584     19586     19584     19587     19587     19588     19587     19589
     19589     19590     19589     19591     19591     19592     19591     19593
     19591     19594     19594     19595     19594     19596     19594     19597
     19597     19598     19597     19599     19597     19600     19600     19601
     19600     19602     19600     19603     19603     19604     19603     19605
     19603     19606     19554     19555     19555     19557     19555     19556
     19557     19558     19557     19559     19557     19607     19607     19608
     19607     19609     19607     19610     19610     19611     19610     19612
     19610     19613     19613     19614     19613     19615     19613     19616
     19616     19617     19616     19618     19616     19619     19619     19620
     19619     19621     19619     19622     19622     19623     19622     19624
     19622     19625     19625     19626     19625     19627     19625     19628
     19628     19629     19628     19630     19628     19631     19631     19632
     19631     19633     19631     19634     19634     19635     19634     19636
     19634     19637     19637     19638     19637     19639     19637     19640
     19640     19641     19640     19642     19640     19643     19643     19644
     19643     19645     19643     19646     19646     19647     19646     19648
     19646     19649     19649     19650     19649     19651     19649     19652
     19652     19653     19652     19654     19652     19655     19656     19657
     19656     19658     19656     19659     19656     19660     19660     19661
     19660     19662     19660     19663     19663     19664     19663     19665
     19663     19669     19671     19670     19669     19666     19666     19670
     19666     19667     19666     19668     19671     19672     19671     19673
     19671     19674     19674     19675     19674     19682     19674     19676
     19682     19683     19682     19684     19682     19685     19676     19677
     19677     19679     19677     19678     19679     19680     19679     19681
     19679     19691     19691     19692     19691     19693     19691     19694
     19694     19695     19694     19696     19694     19697     19697     19698
     19697     19699     19699     19700     19699     19701     19701     19702
     19701     19703     19701     19704     19704     19705     19704     19706
     19706     19707     19706     19708     19708     19709     19708     19710
     19708     19711     19711     19712     19711     19713     19713     19714
     19713     19715     19715     19716     19715     19717     19715     19718
     19718     19719     19718     19720     19720     19721     19720     19722
     19722     19723     19722     19724     19722     19725     19725     19726
     19725     19727     19725     19728     19728     19729     19728     19730
     19728     19731     19731     19732     19731     19733     19731     19734
     19734     19735     19734     19736     19734     19737     19685     19686
     19686     19688     19686     19687     19688     19689     19688     19690
     19688     19738     19738     19739     19738     19740     19738     19741
     19741     19742     19741     19743     19741     19744     19744     19745
     19744     19746     19744     19747     19747     19748     19747     19749
     19747     19750     19750     19751     19750     19752     19750     19753
     19753     19754     19753     19755     19753     19756     19756     19757
     19756     19758     19756     19759     19759     19760     19759     19761
     19759     19762     19762     19763     19762     19764     19762     19765
     19765     19766     19765     19767     19765     19768     19768     19769
     19768     19770     19768     19771     19771     19772     19771     19773
     19771     19774     19774     19775     19774     19776     19774     19777
     19777     19778     19777     19779     19777     19780     19780     19781
     19780     19782     19780     19783     19783     19784     19783     19785
     19783     19786     19787     19789     19787     19788     19789     19790
     19787     19833     19833     19834     19833     19835     19833     19830
     19830     19831     19830     19832     19787     19791     19791     19792
     19791     19793     19791     19794     19794     19825     19825     19830
     19825     19826     19826     19827     19826     19828     19826     19829
     19794     19795     19795     19796     19795     19797     19797     19798
     19797     19799     19797     19800     19800     19801     19800     19823
     19823     19824     19823     19825     19800     19802     19802     19803
     19802     19812     19812     19817     19817     19818     19817     19819
     19817     19820     19820     19821     19820     19822     19820     19823
     19812     19813     19813     19814     19813     19815     19813     19816
     19802     19804     19804     19805     19804     19806     19804     19807
     19807     19808     19807     19809     19807     19810     19810     19811
     19810     19812     19810     19836     19836     19837     19836     19838
     19838     19839     19838     19840     19838     19841     19836     19842
     19842     19843     19842     19844     19842     19845     19845     19846
     19845     19847     19845     19848     19848     19849     19848     19850
     19848     19851     19851     19852     19851     19853     19853     19854
     19853     19855     19853     19856     19851     19857     19857     19858
     19857     19859     19857     19860     19861     19863     19861     19862
     19863     19864     19861     19907     19907     19908     19907     19909
     19907     19904     19904     19905     19904     19906     19861     19865
     19865     19866     19865     19867     19865     19868     19868     19899
     19899     19904     19899     19900     19900     19901     19900     19902
     19900     19903     19868     19869     19869     19870     19869     19871
     19871     19872     19871     19873     19871     19874     19874     19875
     19874     19897     19897     19898     19897     19899     19874     19876
     19876     19877     19876     19886     19886     19891     19891     19892
     19891     19893     19891     19894     19894     19895     19894     19896
     19894     19897     19886     19887     19887     19888     19887     19889
     19887     19890     19876     19878     19878     19879     19878     19880
     19878     19881     19881     19882     19881     19883     19881     19884
     19884     19885     19884     19886     19884     19910     19910     19911
     19910     19912     19912     19913     19912     19914     19912     19915
     19910     19916     19916     19917     19916     19918     19916     19919
     19919     19920     19919     19921     19919     19922     19922     19923
     19922     19924     19922     19925     19925     19926     19925     19927
     19927     19928     19927     19929     19927     19930     19925     19931
     19931     19932     19931     19933     19931     19934     19935     19936
     19935     19940     19935     19944     19936     19937     19936     19938
     19936     19939     19940     19941     19940     19942     19940     19943
     19944     19945     19944     19946     19944     19947     19935     19948
     19948     19949     19948     19950     19948     19951     19951     19952
     19951     19953     19951     19957     19958     19959     19957     19954
     19954     19958     19954     19955     19954     19956     19959     19960
     19959     19961     19959     19962     19962     19963     19962     19970
     19962     19964     19970     19971     19970     19972     19970     19973
     19964     19965     19965     19967     19965     19966     19967     19968
     19967     19969     19967     19979     19979     19980     19979     19981
     19979     19982     19982     19983     19982     19984     19982     19985
     19985     19986     19985     19987     19985     19988     19988     19989
     19988     19990     19988     19991     19991     19992     19991     19993
     19991     19994     19994     19995     19994     19996     19994     19997
     19997     19998     19997     19999     19999     20000     19999     20001
     20001     20002     20001     20003     20001     20004     20004     20005
     20004     20006     20006     20007     20006     20008     20008     20009
     20008     20010     20008     20011     20011     20012     20011     20013
     20011     20014     20014     20015     20014     20016     20014     20017
     20017     20018     20017     20019     20017     20020     20020     20021
     20020     20022     20020     20023     19973     19974     19974     19976
     19974     19975     19976     19977     19976     19978     19976     20024
     20024     20025     20024     20026     20024     20027     20027     20028
     20027     20029     20027     20030     20030     20031     20030     20032
     20030     20033     20033     20034     20033     20035     20033     20036
     20036     20037     20036     20038     20036     20039     20039     20040
     20039     20041     20039     20042     20042     20043     20042     20044
     20042     20045     20045     20046     20045     20047     20045     20048
     20048     20049     20048     20050     20048     20051     20051     20052
     20051     20053     20051     20054     20054     20055     20054     20056
     20054     20057     20057     20058     20057     20059     20057     20060
     20060     20061     20060     20062     20060     20063     20063     20064
     20063     20065     20063     20066     20066     20067     20066     20068
     20066     20069     20069     20070     20069     20071     20069     20072
     20073     20075     20073     20074     20075     20076     20073     20119
     20119     20120     20119     20121     20119     20116     20116     20117
     20116     20118     20073     20077     20077     20078     20077     20079
     20077     20080     20080     20111     20111     20116     20111     20112
     20112     20113     20112     20114     20112     20115     20080     20081
     20081     20082     20081     20083     20083     20084     20083     20085
     20083     20086     20086     20087     20086     20109     20109     20110
     20109     20111     20086     20088     20088     20089     20088     20098
     20098     20103     20103     20104     20103     20105     20103     20106
     20106     20107     20106     20108     20106     20109     20098     20099
     20099     20100     20099     20101     20099     20102     20088     20090
     20090     20091     20090     20092     20090     20093     20093     20094
     20093     20095     20093     20096     20096     20097     20096     20098
     20096     20122     20122     20123     20122     20124     20124     20125
     20124     20126     20124     20127     20122     20128     20128     20129
     20128     20130     20128     20131     20131     20132     20131     20133
     20131     20134     20134     20135     20134     20136     20134     20137
     20137     20138     20137     20139     20139     20140     20139     20141
     20139     20142     20137     20143     20143     20144     20143     20145
     20143     20146     20147     20148     20147     20149     20147     20150
     20147     20151     20151     20152     20151     20153     20151     20154
     20154     20155     20154     20156     20154     20160     20162     20161
     20160     20157     20157     20161     20157     20158     20157     20159
     20162     20163     20162     20164     20162     20165     20165     20166
     20165     20173     20165     20167     20173     20174     20173     20175
     20173     20176     20167     20168     20168     20170     20168     20169
     20170     20171     20170     20172     20170     20182     20182     20183
     20182     20184     20182     20185     20185     20186     20185     20187
     20185     20188     20188     20189     20188     20190     20190     20191
     20190     20192     20192     20193     20192     20194     20192     20195
     20195     20196     20195     20197     20197     20198     20197     20199
     20199     20200     20199     20201     20199     20202     20202     20203
     20202     20204     20204     20205     20204     20206     20206     20207
     20206     20208     20206     20209     20209     20210     20209     20211
     20211     20212     20211     20213     20213     20214     20213     20215
     20213     20216     20216     20217     20216     20218     20216     20219
     20219     20220     20219     20221     20219     20222     20222     20223
     20222     20224     20222     20225     20225     20226     20225     20227
     20225     20228     20176     20177     20177     20179     20177     20178
     20179     20180     20179     20181     20179     20229     20229     20230
     20229     20231     20229     20232     20232     20233     20232     20234
     20232     20235     20235     20236     20235     20237     20235     20238
     20238     20239     20238     20240     20238     20241     20241     20242
     20241     20243     20241     20244     20244     20245     20244     20246
     20244     20247     20247     20248     20247     20249     20247     20250
     20250     20251     20250     20252     20250     20253     20253     20254
     20253     20255     20253     20256     20256     20257     20256     20258
     20256     20259     20259     20260     20259     20261     20259     20262
     20262     20263     20262     20264     20262     20265     20265     20266
     20265     20267     20265     20268     20268     20269     20268     20270
     20268     20271     20271     20272     20271     20273     20271     20274
     20274     20275     20274     20276     20274     20277     20278     20280
     20278     20279     20280     20281     20278     20324     20324     20325
     20324     20326     20324     20321     20321     20322     20321     20323
     20278     20282     20282     20283     20282     20284     20282     20285
     20285     20316     20316     20321     20316     20317     20317     20318
     20317     20319     20317     20320     20285     20286     20286     20287
     20286     20288     20288     20289     20288     20290     20288     20291
     20291     20292     20291     20314     20314     20315     20314     20316
     20291     20293     20293     20294     20293     20303     20303     20308
     20308     20309     20308     20310     20308     20311     20311     20312
     20311     20313     20311     20314     20303     20304     20304     20305
     20304     20306     20304     20307     20293     20295     20295     20296
     20295     20297     20295     20298     20298     20299     20298     20300
     20298     20301     20301     20302     20301     20303     20301     20327
     20327     20328     20327     20329     20329     20330     20329     20331
     20329     20332     20327     20333     20333     20334     20333     20335
     20333     20336     20336     20337     20336     20338     20336     20339
     20339     20340     20339     20341     20339     20342     20342     20343
     20342     20344     20344     20345     20344     20346     20344     20347
     20342     20348     20348     20349     20348     20350     20348     20351
     20352     20354     20352     20353     20354     20355     20352     20398
     20398     20399     20398     20400     20398     20395     20395     20396
     20395     20397     20352     20356     20356     20357     20356     20358
     20356     20359     20359     20390     20390     20395     20390     20391
     20391     20392     20391     20393     20391     20394     20359     20360
     20360     20361     20360     20362     20362     20363     20362     20364
     20362     20365     20365     20366     20365     20388     20388     20389
     20388     20390     20365     20367     20367     20368     20367     20377
     20377     20382     20382     20383     20382     20384     20382     20385
     20385     20386     20385     20387     20385     20388     20377     20378
     20378     20379     20378     20380     20378     20381     20367     20369
     20369     20370     20369     20371     20369     20372     20372     20373
     20372     20374     20372     20375     20375     20376     20375     20377
     20375     20401     20401     20402     20401     20403     20403     20404
     20403     20405     20403     20406     20401     20407     20407     20408
     20407     20409     20407     20410     20410     20411     20410     20412
     20410     20413     20413     20414     20413     20415     20413     20416
     20416     20417     20416     20418     20418     20419     20418     20420
     20418     20421     20416     20422     20422     20423     20422     20424
     20422     20425     20426     20427     20426     20428     20426     20429
     20426     20430     20430     20431     20430     20432     20430     20433
     20433     20434     20433     20435     20433     20439     20441     20440
     20439     20436     20436     20440     20436     20437     20436     20438
     20441     20442     20441     20443     20441     20444     20444     20445
     20444     20452     20444     20446     20452     20453     20452     20454
     20452     20455     20446     20447     20447     20449     20447     20448
     20449     20450     20449     20451     20449     20461     20461     20462
     20461     20463     20461     20464     20464     20465     20464     20466
     20464     20467     20467     20468     20467     20469     20469     20470
     20469     20471     20471     20472     20471     20473     20471     20474
     20474     20475     20474     20476     20476     20477     20476     20478
     20478     20479     20478     20480     20478     20481     20481     20482
     20481     20483     20483     20484     20483     20485     20485     20486
     20485     20487     20485     20488     20488     20489     20488     20490
     20490     20491     20490     20492     20492     20493     20492     20494
     20492     20495     20495     20496     20495     20497     20495     20498
     20498     20499     20498     20500     20498     20501     20501     20502
     20501     20503     20501     20504     20504     20505     20504     20506
     20504     20507     20455     20456     20456     20458     20456     20457
     20458     20459     20458     20460     20458     20508     20508     20509
     20508     20510     20508     20511     20511     20512     20511     20513
     20511     20514     20514     20515     20514     20516     20514     20517
     20517     20518     20517     20519     20517     20520     20520     20521
     20520     20522     20520     20523     20523     20524     20523     20525
     20523     20526     20526     20527     20526     20528     20526     20529
     20529     20530     20529     20531     20529     20532     20532     20533
     20532     20534     20532     20535     20535     20536     20535     20537
     20535     20538     20538     20539     20538     20540     20538     20541
     20541     20542     20541     20543     20541     20544     20544     20545
     20544     20546     20544     20547     20547     20548     20547     20549
     20547     20550     20550     20551     20550     20552     20550     20553
     20553     20554     20553     20555     20553     20556     20557     20558
     20557     20562     20557     20566     20558     20559     20558     20560
     20558     20561     20562     20563     20562     20564     20562     20565
     20566     20567     20566     20568     20566     20569     20557     20570
     20570     20571     20570     20572     20570     20573     20573     20574
     20573     20575     20573     20579     20580     20581     20579     20576
     20576     20580     20576     20577     20576     20578     20581     20582
     20581     20583     20581     20584     20584     20585     20584     20592
     20584     20586     20592     20593     20592     20594     20592     20595
     20586     20587     20587     20589     20587     20588     20589     20590
     20589     20591     20589     20601     20601     20602     20601     20603
     20601     20604     20604     20605     20604     20606     20604     20607
     20607     20608     20607     20609     20607     20610     20610     20611
     20610     20612     20610     20613     20613     20614     20613     20615
     20613     20616     20616     20617     20616     20618     20616     20619
     20619     20620     20619     20621     20621     20622     20621     20623
     20623     20624     20623     20625     20623     20626     20626     20627
     20626     20628     20628     20629     20628     20630     20630     20631
     20630     20632     20630     20633     20633     20634     20633     20635
     20633     20636     20636     20637     20636     20638     20636     20639
     20639     20640     20639     20641     20639     20642     20642     20643
     20642     20644     20642     20645     20595     20596     20596     20598
     20596     20597     20598     20599     20598     20600     20598     20646
     20646     20647     20646     20648     20646     20649     20649     20650
     20649     20651     20649     20652     20652     20653     20652     20654
     20652     20655     20655     20656     20655     20657     20655     20658
     20658     20659     20658     20660     20658     20661     20661     20662
     20661     20663     20661     20664     20664     20665     20664     20666
     20664     20667     20667     20668     20667     20669     20667     20670
     20670     20671     20670     20672     20670     20673     20673     20674
     20673     20675     20673     20676     20676     20677     20676     20678
     20676     20679     20679     20680     20679     20681     20679     20682
     20682     20683     20682     20684     20682     20685     20685     20686
     20685     20687     20685     20688     20688     20689     20688     20690
     20688     20691     20691     20692     20691     20693     20691     20694
     20695     20697     20695     20696     20697     20698     20695     20741
     20741     20742     20741     20743     20741     20738     20738     20739
     20738     20740     20695     20699     20699     20700     20699     20701
     20699     20702     20702     20733     20733     20738     20733     20734
     20734     20735     20734     20736     20734     20737     20702     20703
     20703     20704     20703     20705     20705     20706     20705     20707
     20705     20708     20708     20709     20708     20731     20731     20732
     20731     20733     20708     20710     20710     20711     20710     20720
     20720     20725     20725     20726     20725     20727     20725     20728
     20728     20729     20728     20730     20728     20731     20720     20721
     20721     20722     20721     20723     20721     20724     20710     20712
     20712     20713     20712     20714     20712     20715     20715     20716
     20715     20717     20715     20718     20718     20719     20718     20720
     20718     20744     20744     20745     20744     20746     20746     20747
     20746     20748     20746     20749     20744     20750     20750     20751
     20750     20752     20750     20753     20753     20754     20753     20755
     20753     20756     20756     20757     20756     20758     20756     20759
     20759     20760     20759     20761     20761     20762     20761     20763
     20761     20764     20759     20765     20765     20766     20765     20767
     20765     20768     20769     20770     20769     20771     20769     20772
     20769     20773     20773     20774     20773     20775     20773     20776
     20776     20777     20776     20778     20776     20782     20784     20783
     20782     20779     20779     20783     20779     20780     20779     20781
     20784     20785     20784     20786     20784     20787     20787     20788
     20787     20795     20787     20789     20795     20796     20795     20797
     20795     20798     20789     20790     20790     20792     20790     20791
     20792     20793     20792     20794     20792     20804     20804     20805
     20804     20806     20804     20807     20807     20808     20807     20809
     20807     20810     20810     20811     20810     20812     20812     20813
     20812     20814     20814     20815     20814     20816     20814     20817
     20817     20818     20817     20819     20819     20820     20819     20821
     20821     20822     20821     20823     20821     20824     20824     20825
     20824     20826     20826     20827     20826     20828     20828     20829
     20828     20830     20828     20831     20831     20832     20831     20833
     20833     20834     20833     20835     20835     20836     20835     20837
     20835     20838     20838     20839     20838     20840     20838     20841
     20841     20842     20841     20843     20841     20844     20844     20845
     20844     20846     20844     20847     20847     20848     20847     20849
     20847     20850     20798     20799     20799     20801     20799     20800
     20801     20802     20801     20803     20801     20851     20851     20852
     20851     20853     20851     20854     20854     20855     20854     20856
     20854     20857     20857     20858     20857     20859     20857     20860
     20860     20861     20860     20862     20860     20863     20863     20864
     20863     20865     20863     20866     20866     20867     20866     20868
     20866     20869     20869     20870     20869     20871     20869     20872
     20872     20873     20872     20874     20872     20875     20875     20876
     20875     20877     20875     20878     20878     20879     20878     20880
     20878     20881     20881     20882     20881     20883     20881     20884
     20884     20885     20884     20886     20884     20887     20887     20888
     20887     20889     20887     20890     20890     20891     20890     20892
     20890     20893     20893     20894     20893     20895     20893     20896
     20896     20897     20896     20898     20896     20899     20900     20901
     20900     20902     20900     20903     20900     20904     20904     20905
     20904     20906     20904     20907     20907     20908     20907     20909
     20907     20913     20915     20914     20913     20910     20910     20914
     20910     20911     20910     20912     20915     20916     20915     20917
     20915     20918     20918     20919     20918     20926     20918     20920
     20926     20927     20926     20928     20926     20929     20920     20921
     20921     20923     20921     20922     20923     20924     20923     20925
     20923     20935     20935     20936     20935     20937     20935     20938
     20938     20939     20938     20940     20938     20941     20941     20942
     20941     20943     20941     20944     20944     20945     20944     20946
     20944     20947     20947     20948     20947     20949     20947     20950
     20950     20951     20950     20952     20950     20953     20953     20954
     20953     20955     20955     20956     20955     20957     20957     20958
     20957     20959     20957     20960     20960     20961     20960     20962
     20960     20963     20963     20964     20963     20965     20963     20966
     20966     20967     20966     20968     20966     20969     20969     20970
     20969     20971     20969     20972     20972     20973     20972     20974
     20972     20975     20975     20976     20975     20977     20975     20978
     20978     20979     20978     20980     20978     20981     20929     20930
     20930     20932     20930     20931     20932     20933     20932     20934
     20932     20982     20982     20983     20982     20984     20982     20985
     20985     20986     20985     20987     20985     20988     20988     20989
     20988     20990     20988     20991     20991     20992     20991     20993
     20991     20994     20994     20995     20994     20996     20994     20997
     20997     20998     20997     20999     20997     21000     21000     21001
     21000     21002     21000     21003     21003     21004     21003     21005
     21003     21006     21006     21007     21006     21008     21006     21009
     21009     21010     21009     21011     21009     21012     21012     21013
     21012     21014     21012     21015     21015     21016     21015     21017
     21015     21018     21018     21019     21018     21020     21018     21021
     21021     21022     21021     21023     21021     21024     21024     21025
     21024     21026     21024     21027     21027     21028     21027     21029
     21027     21030     21031     21032     21031     21033     21031     21034
     21031     21035     21035     21036     21035     21037     21035     21038
     21038     21039     21038     21040     21038     21044     21046     21045
     21044     21041     21041     21045     21041     21042     21041     21043
     21046     21047     21046     21048     21046     21049     21049     21050
     21049     21057     21049     21051     21057     21058     21057     21059
     21057     21060     21051     21052     21052     21054     21052     21053
     21054     21055     21054     21056     21054     21066     21066     21067
     21066     21068     21066     21069     21069     21070     21069     21071
     21069     21072     21072     21073     21072     21074     21072     21075
     21075     21076     21075     21077     21075     21078     21078     21079
     21078     21080     21078     21081     21081     21082     21081     21083
     21081     21084     21084     21085     21084     21086     21086     21087
     21086     21088     21088     21089     21088     21090     21088     21091
     21091     21092     21091     21093     21091     21094     21094     21095
     21094     21096     21094     21097     21097     21098     21097     21099
     21097     21100     21100     21101     21100     21102     21100     21103
     21103     21104     21103     21105     21103     21106     21106     21107
     21106     21108     21106     21109     21109     21110     21109     21111
     21109     21112     21060     21061     21061     21063     21061     21062
     21063     21064     21063     21065     21063     21113     21113     21114
     21113     21115     21113     21116     21116     21117     21116     21118
     21116     21119     21119     21120     21119     21121     21119     21122
     21122     21123     21122     21124     21122     21125     21125     21126
     21125     21127     21125     21128     21128     21129     21128     21130
     21128     21131     21131     21132     21131     21133     21131     21134
     21134     21135     21134     21136     21134     21137     21137     21138
     21137     21139     21137     21140     21140     21141     21140     21142
     21140     21143     21143     21144     21143     21145     21143     21146
     21146     21147     21146     21148     21146     21149     21149     21150
     21149     21151     21149     21152     21152     21153     21152     21154
     21152     21155     21155     21156     21155     21157     21155     21158
     21158     21159     21158     21160     21158     21161     21162     21164
     21162     21163     21164     21165     21162     21208     21208     21209
     21208     21210     21208     21205     21205     21206     21205     21207
     21162     21166     21166     21167     21166     21168     21166     21169
     21169     21200     21200     21205     21200     21201     21201     21202
     21201     21203     21201     21204     21169     21170     21170     21171
     21170     21172     21172     21173     21172     21174     21172     21175
     21175     21176     21175     21198     21198     21199     21198     21200
     21175     21177     21177     21178     21177     21187     21187     21192
     21192     21193     21192     21194     21192     21195     21195     21196
     21195     21197     21195     21198     21187     21188     21188     21189
     21188     21190     21188     21191     21177     21179     21179     21180
     21179     21181     21179     21182     21182     21183     21182     21184
     21182     21185     21185     21186     21185     21187     21185     21211
     21211     21212     21211     21213     21213     21214     21213     21215
     21213     21216     21211     21217     21217     21218     21217     21219
     21217     21220     21220     21221     21220     21222     21220     21223
     21223     21224     21223     21225     21223     21226     21226     21227
     21226     21228     21228     21229     21228     21230     21228     21231
     21226     21232     21232     21233     21232     21234     21232     21235
     21311     21312     21311     21313     21311     21314     21311     21308
     21308     21309     21308     21310     21308     21305     21305     21306
     21305     21307     21305     21302     21302     21303     21302     21304
     21302     21299     21299     21300     21299     21301     21299     21296
     21296     21297     21296     21298     21296     21293     21293     21294
     21293     21295     21293     21290     21290     21291     21290     21292
     21290     21287     21287     21288     21287     21289     21287     21284
     21284     21285     21284     21286     21284     21281     21281     21282
     21281     21283     21281     21278     21278     21279     21278     21280
     21278     21275     21275     21276     21275     21277     21275     21273
     21273     21274     21271     21272     21271     21267     21267     21268
     21267     21269     21269     21270     21267     21265     21265     21266
     21265     21260     21260     21261     21260     21262     21260     21258
     21258     21255     21259     21255     21256     21255     21257     21255
     21259     21252     21252     21253     21252     21254     21252     21249
     21249     21250     21249     21251     21249     21236     21236     21245
     21236     21241     21236     21237     21245     21246     21245     21247
     21245     21248     21241     21242     21241     21243     21241     21244
     21237     21238     21237     21239     21237     21240     21265     21263
     21263     21264     21263     21315     21315     21317     21317     21318
     21317     21319     21317     21320     21320     21321     21320     21322
     21320     21323     21323     21324     21323     21325     21323     21326
     21326     21327     21326     21328     21326     21329     21329     21330
     21329     21331     21329     21332     21332     21333     21332     21334
     21332     21335     21335     21336     21335     21337     21335     21338
     21338     21339     21340     21341     21340     21342     21342     21343
     21342     21344     21342     21345     21345     21346     21345     21347
     21345     21348     21348     21349     21348     21350     21348     21351
     21351     21352     21351     21353     21351     21354     21354     21355
     21354     21356     21354     21357     21357     21358     21357     21359
     21357     21360     21360     21361     21360     21362     21360     21363
     21363     21364     21363     21365     21363     21366     21271     21273
     21338     21340     21315     21316     21367     21368     21367     21369
     21367     21370     21367     21371     21371     21372     21371     21373
     21371     21374     21374     21375     21374     21376     21374     21380
     21382     21381     21380     21377     21377     21381     21377     21378
     21377     21379     21382     21383     21382     21384     21382     21385
     21385     21386     21385     21393     21385     21387     21393     21394
     21393     21395     21393     21396     21387     21388     21388     21390
     21388     21389     21390     21391     21390     21392     21390     21402
     21402     21403     21402     21404     21402     21405     21405     21406
     21405     21407     21405     21408     21408     21409     21408     21410
     21410     21411     21410     21412     21412     21413     21412     21414
     21412     21415     21415     21416     21415     21417     21417     21418
     21417     21419     21419     21420     21419     21421     21419     21422
     21422     21423     21422     21424     21424     21425     21424     21426
     21426     21427     21426     21428     21426     21429     21429     21430
     21429     21431     21431     21432     21431     21433     21433     21434
     21433     21435     21433     21436     21436     21437     21436     21438
     21436     21439     21439     21440     21439     21441     21439     21442
     21442     21443     21442     21444     21442     21445     21445     21446
     21445     21447     21445     21448     21396     21397     21397     21399
     21397     21398     21399     21400     21399     21401     21399     21449
     21449     21450     21449     21451     21449     21452     21452     21453
     21452     21454     21452     21455     21455     21456     21455     21457
     21455     21458     21458     21459     21458     21460     21458     21461
     21461     21462     21461     21463     21461     21464     21464     21465
     21464     21466     21464     21467     21467     21468     21467     21469
     21467     21470     21470     21471     21470     21472     21470     21473
     21473     21474     21473     21475     21473     21476     21476     21477
     21476     21478     21476     21479     21479     21480     21479     21481
     21479     21482     21482     21483     21482     21484     21482     21485
     21485     21486     21485     21487     21485     21488     21488     21489
     21488     21490     21488     21491     21491     21492     21491     21493
     21491     21494     21494     21495     21494     21496     21494     21497
     21573     21574     21573     21575     21573     21576     21573     21570
     21570     21571     21570     21572     21570     21567     21567     21568
     21567     21569     21567     21564     21564     21565     21564     21566
     21564     21561     21561     21562     21561     21563     21561     21558
     21558     21559     21558     21560     21558     21555     21555     21556
     21555     21557     21555     21552     21552     21553     21552     21554
     21552     21549     21549     21550     21549     21551     21549     21546
     21546     21547     21546     21548     21546     21543     21543     21544
     21543     21545     21543     21540     21540     21541     21540     21542
     21540     21537     21537     21538     21537     21539     21537     21535
     21535     21536     21533     21534     21533     21529     21529     21530
     21529     21531     21531     21532     21529     21527     21527     21528
     21527     21522     21522     21523     21522     21524     21522     21520
     21520     21517     21521     21517     21518     21517     21519     21517
     21521     21514     21514     21515     21514     21516     21514     21511
     21511     21512     21511     21513     21511     21498     21498     21507
     21498     21503     21498     21499     21507     21508     21507     21509
     21507     21510     21503     21504     21503     21505     21503     21506
     21499     21500     21499     21501     21499     21502     21527     21525
     21525     21526     21525     21577     21577     21579     21579     21580
     21579     21581     21579     21582     21582     21583     21582     21584
     21582     21585     21585     21586     21585     21587     21585     21588
     21588     21589     21588     21590     21588     21591     21591     21592
     21591     21593     21591     21594     21594     21595     21594     21596
     21594     21597     21597     21598     21597     21599     21597     21600
     21600     21601     21602     21603     21602     21604     21604     21605
     21604     21606     21604     21607     21607     21608     21607     21609
     21607     21610     21610     21611     21610     21612     21610     21613
     21613     21614     21613     21615     21613     21616     21616     21617
     21616     21618     21616     21619     21619     21620     21619     21621
     21619     21622     21622     21623     21622     21624     21622     21625
     21625     21626     21625     21627     21625     21628     21533     21535
     21600     21602     21577     21578     21629     21631     21629     21630
     21631     21632     21629     21675     21675     21676     21675     21677
     21675     21672     21672     21673     21672     21674     21629     21633
     21633     21634     21633     21635     21633     21636     21636     21667
     21667     21672     21667     21668     21668     21669     21668     21670
     21668     21671     21636     21637     21637     21638     21637     21639
     21639     21640     21639     21641     21639     21642     21642     21643
     21642     21665     21665     21666     21665     21667     21642     21644
     21644     21645     21644     21654     21654     21659     21659     21660
     21659     21661     21659     21662     21662     21663     21662     21664
     21662     21665     21654     21655     21655     21656     21655     21657
     21655     21658     21644     21646     21646     21647     21646     21648
     21646     21649     21649     21650     21649     21651     21649     21652
     21652     21653     21652     21654     21652     21678     21678     21679
     21678     21680     21680     21681     21680     21682     21680     21683
     21678     21684     21684     21685     21684     21686     21684     21687
     21687     21688     21687     21689     21687     21690     21690     21691
     21690     21692     21690     21693     21693     21694     21693     21695
     21695     21696     21695     21697     21695     21698     21693     21699
     21699     21700     21699     21701     21699     21702     21778     21779
     21778     21780     21778     21781     21778     21775     21775     21776
     21775     21777     21775     21772     21772     21773     21772     21774
     21772     21769     21769     21770     21769     21771     21769     21766
     21766     21767     21766     21768     21766     21763     21763     21764
     21763     21765     21763     21760     21760     21761     21760     21762
     21760     21757     21757     21758     21757     21759     21757     21754
     21754     21755     21754     21756     21754     21751     21751     21752
     21751     21753     21751     21748     21748     21749     21748     21750
     21748     21745     21745     21746     21745     21747     21745     21742
     21742     21743     21742     21744     21742     21740     21740     21741
     21738     21739     21738     21734     21734     21735     21734     21736
     21736     21737     21734     21732     21732     21733     21732     21727
     21727     21728     21727     21729     21727     21725     21725     21722
     21726     21722     21723     21722     21724     21722     21726     21719
     21719     21720     21719     21721     21719     21716     21716     21717
     21716     21718     21716     21703     21703     21712     21703     21708
     21703     21704     21712     21713     21712     21714     21712     21715
     21708     21709     21708     21710     21708     21711     21704     21705
     21704     21706     21704     21707     21732     21730     21730     21731
     21730     21782     21782     21784     21784     21785     21784     21786
     21784     21787     21787     21788     21787     21789     21787     21790
     21790     21791     21790     21792     21790     21793     21793     21794
     21793     21795     21793     21796     21796     21797     21796     21798
     21796     21799     21799     21800     21799     21801     21799     21802
     21802     21803     21802     21804     21802     21805     21805     21806
     21807     21808     21807     21809     21809     21810     21809     21811
     21809     21812     21812     21813     21812     21814     21812     21815
     21815     21816     21815     21817     21815     21818     21818     21819
     21818     21820     21818     21821     21821     21822     21821     21823
     21821     21824     21824     21825     21824     21826     21824     21827
     21827     21828     21827     21829     21827     21830     21830     21831
     21830     21832     21830     21833     21738     21740     21805     21807
     21782     21783     21909     21910     21909     21911     21909     21912
     21909     21906     21906     21907     21906     21908     21906     21903
     21903     21904     21903     21905     21903     21900     21900     21901
     21900     21902     21900     21897     21897     21898     21897     21899
     21897     21894     21894     21895     21894     21896     21894     21891
     21891     21892     21891     21893     21891     21888     21888     21889
     21888     21890     21888     21885     21885     21886     21885     21887
     21885     21882     21882     21883     21882     21884     21882     21879
     21879     21880     21879     21881     21879     21876     21876     21877
     21876     21878     21876     21873     21873     21874     21873     21875
     21873     21871     21871     21872     21869     21870     21869     21865
     21865     21866     21865     21867     21867     21868     21865     21863
     21863     21864     21863     21858     21858     21859     21858     21860
     21858     21856     21856     21853     21857     21853     21854     21853
     21855     21853     21857     21850     21850     21851     21850     21852
     21850     21847     21847     21848     21847     21849     21847     21834
     21834     21843     21834     21839     21834     21835     21843     21844
     21843     21845     21843     21846     21839     21840     21839     21841
     21839     21842     21835     21836     21835     21837     21835     21838
     21863     21861     21861     21862     21861     21913     21913     21915
     21915     21916     21915     21917     21915     21918     21918     21919
     21918     21920     21918     21921     21921     21922     21921     21923
     21921     21924     21924     21925     21924     21926     21924     21927
     21927     21928     21927     21929     21927     21930     21930     21931
     21930     21932     21930     21933     21933     21934     21933     21935
     21933     21936     21936     21937     21938     21939     21938     21940
     21940     21941     21940     21942     21940     21943     21943     21944
     21943     21945     21943     21946     21946     21947     21946     21948
     21946     21949     21949     21950     21949     21951     21949     21952
     21952     21953     21952     21954     21952     21955     21955     21956
     21955     21957     21955     21958     21958     21959     21958     21960
     21958     21961     21961     21962     21961     21963     21961     21964
     21869     21871     21936     21938     21913     21914     21965     21967
     21965     21966     21967     21968     21965     22011     22011     22012
     22011     22013     22011     22008     22008     22009     22008     22010
     21965     21969     21969     21970     21969     21971     21969     21972
     21972     22003     22003     22008     22003     22004     22004     22005
     22004     22006     22004     22007     21972     21973     21973     21974
     21973     21975     21975     21976     21975     21977     21975     21978
     21978     21979     21978     22001     22001     22002     22001     22003
     21978     21980     21980     21981     21980     21990     21990     21995
     21995     21996     21995     21997     21995     21998     21998     21999
     21998     22000     21998     22001     21990     21991     21991     21992
     21991     21993     21991     21994     21980     21982     21982     21983
     21982     21984     21982     21985     21985     21986     21985     21987
     21985     21988     21988     21989     21988     21990     21988     22014
     22014     22015     22014     22016     22016     22017     22016     22018
     22016     22019     22014     22020     22020     22021     22020     22022
     22020     22023     22023     22024     22023     22025     22023     22026
     22026     22027     22026     22028     22026     22029     22029     22030
     22029     22031     22031     22032     22031     22033     22031     22034
     22029     22035     22035     22036     22035     22037     22035     22038
     22039     22043     22039     22047     22039     22051     22043     22044
     22043     22045     22043     22046     22047     22048     22047     22049
     22047     22050     22051     22052     22051     22053     22051     22054
     22039     22040     22040     22041     22040     22042     22040     22055
     22055     22056     22055     22057     22055     22061     22062     22063
     22061     22058     22058     22062     22058     22059     22058     22060
     22063     22064     22063     22065     22063     22066     22066     22067
     22066     22074     22066     22068     22074     22075     22074     22076
     22074     22077     22068     22069     22069     22071     22069     22070
     22071     22072     22071     22073     22071     22083     22083     22084
     22083     22085     22083     22086     22086     22087     22086     22088
     22086     22089     22089     22090     22089     22091     22091     22092
     22091     22093     22093     22094     22093     22095     22093     22096
     22096     22097     22096     22098     22098     22099     22098     22100
     22100     22101     22100     22102     22100     22103     22103     22104
     22103     22105     22105     22106     22105     22107     22107     22108
     22107     22109     22107     22110     22110     22111     22110     22112
     22112     22113     22112     22114     22114     22115     22114     22116
     22114     22117     22117     22118     22117     22119     22117     22120
     22120     22121     22120     22122     22120     22123     22123     22124
     22123     22125     22123     22126     22126     22127     22126     22128
     22126     22129     22077     22078     22078     22080     22078     22079
     22080     22081     22080     22082     22080     22130     22130     22131
     22130     22132     22130     22133     22133     22134     22133     22135
     22133     22136     22136     22137     22136     22138     22136     22139
     22139     22140     22139     22141     22139     22142     22142     22143
     22142     22144     22142     22145     22145     22146     22145     22147
     22145     22148     22148     22149     22148     22150     22148     22151
     22151     22152     22151     22153     22151     22154     22154     22155
     22154     22156     22154     22157     22157     22158     22157     22159
     22157     22160     22160     22161     22160     22162     22160     22163
     22163     22164     22163     22165     22163     22166     22166     22167
     22166     22168     22166     22169     22169     22170     22169     22171
     22169     22172     22172     22173     22172     22174     22172     22175
     22175     22176     22175     22177     22175     22178     22179     22181
     22179     22180     22181     22182     22179     22225     22225     22226
     22225     22227     22225     22222     22222     22223     22222     22224
     22179     22183     22183     22184     22183     22185     22183     22186
     22186     22217     22217     22222     22217     22218     22218     22219
     22218     22220     22218     22221     22186     22187     22187     22188
     22187     22189     22189     22190     22189     22191     22189     22192
     22192     22193     22192     22215     22215     22216     22215     22217
     22192     22194     22194     22195     22194     22204     22204     22209
     22209     22210     22209     22211     22209     22212     22212     22213
     22212     22214     22212     22215     22204     22205     22205     22206
     22205     22207     22205     22208     22194     22196     22196     22197
     22196     22198     22196     22199     22199     22200     22199     22201
     22199     22202     22202     22203     22202     22204     22202     22228
     22228     22229     22228     22230     22230     22231     22230     22232
     22230     22233     22228     22234     22234     22235     22234     22236
     22234     22237     22237     22238     22237     22239     22237     22240
     22240     22241     22240     22242     22240     22243     22243     22244
     22243     22245     22245     22246     22245     22247     22245     22248
     22243     22249     22249     22250     22249     22251     22249     22252
     22253     22254     22253     22255     22254     22255     22256     22257
     22256     22258     22257     22258     22259     22260     22259     22261
     22260     22261     22262     22263     22262     22264     22263     22264
     22265     22266     22265     22267     22266     22267     22268     22269
     22268     22270     22269     22270     22271     22272     22271     22273
     22272     22273     22274     22275     22274     22276     22275     22276
     22277     22278     22277     22279     22278     22279     22280     22281
     22280     22282     22281     22282     22283     22284     22283     22285
     22284     22285     22286     22287     22286     22288     22287     22288
     22289     22290     22289     22291     22290     22291     22292     22293
     22292     22294     22293     22294     22295     22296     22295     22297
     22296     22297     22298     22299     22298     22300     22299     22300
     22301     22302     22301     22303     22302     22303     22304     22305
     22304     22306     22305     22306     22307     22308     22307     22309
     22308     22309     22310     22311     22310     22312     22311     22312
     22313     22314     22313     22315     22314     22315     22316     22317
     22316     22318     22317     22318     22319     22320     22319     22321
     22320     22321     22322     22323     22322     22324     22323     22324
     22325     22326     22325     22327     22326     22327     22328     22329
     22328     22330     22329     22330     22331     22332     22331     22333
     22332     22333     22334     22335     22334     22336     22335     22336
     22337     22338     22337     22339     22338     22339     22340     22341
     22340     22342     22341     22342     22343     22344     22343     22345
     22344     22345     22346     22347     22346     22348     22347     22348
     22349     22350     22349     22351     22350     22351     22352     22353
     22352     22354     22353     22354     22355     22356     22355     22357
     22356     22357     22358     22359     22358     22360     22359     22360
     22361     22362     22361     22363     22362     22363     22364     22365
     22364     22366     22365     22366     22367     22368     22367     22369
     22368     22369     22370     22371     22370     22372     22371     22372
     22373     22374     22373     22375     22374     22375     22376     22377
     22376     22378     22377     22378     22379     22380     22379     22381
     22380     22381     22382     22383     22382     22384     22383     22384
     22385     22386     22385     22387     22386     22387     22388     22389
     22388     22390     22389     22390     22391     22392     22391     22393
     22392     22393     22394     22395     22394     22396     22395     22396
     22397     22398     22397     22399     22398     22399     22400     22401
     22400     22402     22401     22402     22403     22404     22403     22405
     22404     22405     22406     22407     22406     22408     22407     22408
     22409     22410     22409     22411     22410     22411     22412     22413
     22412     22414     22413     22414     22415     22416     22415     22417
     22416     22417     22418     22419     22418     22420     22419     22420
     22421     22422     22421     22423     22422     22423     22424     22425
     22424     22426     22425     22426     22427     22428     22427     22429
     22428     22429     22430     22431     22430     22432     22431     22432
     22433     22434     22433     22435     22434     22435     22436     22437
     22436     22438     22437     22438     22439     22440     22439     22441
     22440     22441     22442     22443     22442     22444     22443     22444
     22445     22446     22445     22447     22446     22447     22448     22449
     22448     22450     22449     22450     22451     22452     22451     22453
     22452     22453     22454     22455     22454     22456     22455     22456
     22457     22458     22457     22459     22458     22459     22460     22461
     22460     22462     22461     22462     22463     22464     22463     22465
     22464     22465     22466     22467     22466     22468     22467     22468
     22469     22470     22469     22471     22470     22471     22472     22473
     22472     22474     22473     22474     22475     22476     22475     22477
     22476     22477     22478     22479     22478     22480     22479     22480
     22481     22482     22481     22483     22482     22483     22484     22485
     22484     22486     22485     22486     22487     22488     22487     22489
     22488     22489     22490     22491     22490     22492     22491     22492
     22493     22494     22493     22495     22494     22495     22496     22497
     22496     22498     22497     22498     22499     22500     22499     22501
     22500     22501     22502     22503     22502     22504     22503     22504
     22505     22506     22505     22507     22506     22507     22508     22509
     22508     22510     22509     22510     22511     22512     22511     22513
     22512     22513     22514     22515     22514     22516     22515     22516
     22517     22518     22517     22519     22518     22519     22520     22521
     22520     22522     22521     22522     22523     22524     22523     22525
     22524     22525     22526     22527     22526     22528     22527     22528
     22529     22530     22529     22531     22530     22531     22532     22533
     22532     22534     22533     22534     22535     22536     22535     22537
     22536     22537     22538     22539     22538     22540     22539     22540
     22541     22542     22541     22543     22542     22543     22544     22545
     22544     22546     22545     22546     22547     22548     22547     22549
     22548     22549     22550     22551     22550     22552     22551     22552
     22553     22554     22553     22555     22554     22555     22556     22557
     22556     22558     22557     22558     22559     22560     22559     22561
     22560     22561     22562     22563     22562     22564     22563     22564
     22565     22566     22565     22567     22566     22567     22568     22569
     22568     22570     22569     22570

     43006 !NTHETA: angles
         1         5         6         1         5         7         1         5        10
         2         1         3         2         1         4         2         1         5
         3         1         4         3         1         5         4         1         5
         5         7         8         5         7         9         5        10        11
         5        10        12         5        10        16         6         5         7
         6         5        10         7         5        10         8         7         9
        10        16        13        11        10        12        11        10        16
        12        10        16        13        17        18        14        13        15
        14        13        16        14        13        17        15        13        16
        15        13        17        16        13        17        17        18        19
        17        18        20        17        18        21        18        21        22
        18        21        23        18        21        29        19        18        20
        19        18        21        20        18        21        21        23        24
        21        29        30        21        29        31        21        29        32
        22        21        23        22        21        29        23        21        29
        23        24        25        23        24        26        24        26        27
        24        26        28        24        26        38        25        24        26
        26        38        39        26        38        40        26        38        41
        27        26        28        27        26        38        28        26        38
        29        32        33        30        29        31        30        29        32
        31        29        32        32        33        34        32        33        35
        33        35        36        33        35        37        33        35        85
        34        33        35        35        85        86        35        85        87
        35        85        88        36        35        37        36        35        85
        37        35        85        38        41        42        38        41        43
        38        41        44        39        38        40        39        38        41
        40        38        41        41        44        45        41        44        46
        42        41        43        42        41        44        43        41        44
        44        46        47        44        46        48        45        44        46
        46        48        49        46        48        50        46        48        51
        47        46        48        48        51        52        48        51        53
        49        48        50        49        48        51        50        48        51
        51        53        54        51        53        55        52        51        53
        53        55        56        53        55        57        53        55        58
        54        53        55        55        58        59        55        58        60
        56        55        57        56        55        58        57        55        58
        58        60        61        58        60        62        59        58        60
        60        62        63        60        62        64        60        62        65
        61        60        62        62        65        66        62        65        67
        63        62        64        63        62        65        64        62        65
        65        67        68        65        67        69        66        65        67
        67        69        70        67        69        71        67        69        72
        68        67        69        69        72        73        69        72        74
        69        72        75        70        69        71        70        69        72
        71        69        72        72        75        76        72        75        77
        72        75        78        73        72        74        73        72        75
        74        72        75        75        78        79        75        78        80
        75        78        81        76        75        77        76        75        78
        77        75        78        78        81        82        78        81        83
        78        81        84        79        78        80        79        78        81
        80        78        81        82        81        83        82        81        84
        83        81        84        85        88        89        85        88        90
        85        88        91        86        85        87        86        85        88
        87        85        88        88        91        92        88        91        93
        88        91        94        89        88        90        89        88        91
        90        88        91        91        94        95        91        94        96
        91        94        97        92        91        93        92        91        94
        93        91        94        94        97        98        94        97        99
        94        97       100        95        94        96        95        94        97
        96        94        97        97       100       101        97       100       102
        97       100       103        98        97        99        98        97       100
        99        97       100       100       103       104       100       103       105
       100       103       106       101       100       102       101       100       103
       102       100       103       103       106       107       103       106       108
       103       106       109       104       103       105       104       103       106
       105       103       106       106       109       110       106       109       111
       106       109       112       107       106       108       107       106       109
       108       106       109       109       112       113       109       112       114
       109       112       115       110       109       111       110       109       112
       111       109       112       112       115       116       112       115       117
       112       115       118       113       112       114       113       112       115
       114       112       115       115       118       119       115       118       120
       115       118       121       116       115       117       116       115       118
       117       115       118       118       121       122       118       121       123
       118       121       124       119       118       120       119       118       121
       120       118       121       121       124       125       121       124       126
       121       124       127       122       121       123       122       121       124
       123       121       124       124       127       128       124       127       129
       124       127       130       125       124       126       125       124       127
       126       124       127       127       130       131       127       130       132
       127       130       133       128       127       129       128       127       130
       129       127       130       131       130       132       131       130       133
       132       130       133       134       136       137       134       138       139
       134       138       140       134       138       141       134       180       177
       134       180       181       134       180       182       135       134       136
       135       134       138       135       134       180       136       134       138
       136       134       180       138       134       180       138       141       142
       138       141       172       139       138       140       139       138       141
       140       138       141       141       142       143       141       142       144
       141       172       170       141       172       173       141       172       177
       142       141       172       142       144       145       142       144       146
       142       144       147       143       142       144       144       147       148
       144       147       149       144       147       170       145       144       146
       145       144       147       146       144       147       147       149       150
       147       149       151       147       149       159       147       170       167
       147       170       171       147       170       172       148       147       149
       148       147       170       149       147       170       149       151       152
       149       151       153       149       151       154       149       159       157
       149       159       160       149       159       164       150       149       151
       150       149       159       151       149       159       151       154       155
       151       154       156       151       154       157       152       151       153
       152       151       154       153       151       154       154       157       158
       154       157       159       154       157       183       155       154       156
       155       154       157       156       154       157       157       159       160
       157       159       164       157       183       184       157       183       185
       157       183       189       158       157       159       158       157       183
       159       157       183       159       160       161       159       160       162
       159       160       163       159       164       165       159       164       166
       159       164       167       160       159       164       161       160       162
       161       160       163       162       160       163       164       167       168
       164       167       169       164       167       170       165       164       166
       165       164       167       166       164       167       167       170       171
       167       170       172       168       167       169       168       167       170
       169       167       170       170       172       173       170       172       177
       171       170       172       172       173       174       172       173       175
       172       173       176       172       177       178       172       177       179
       172       177       180       173       172       177       174       173       175
       174       173       176       175       173       176       177       180       181
       177       180       182       178       177       179       178       177       180
       179       177       180       181       180       182       183       185       186
       183       185       187       183       185       188       183       189       190
       183       189       191       183       189       192       184       183       185
       184       183       189       185       183       189       186       185       187
       186       185       188       187       185       188       189       192       193
       189       192       194       189       192       195       190       189       191
       190       189       192       191       189       192       192       195       196
       192       195       197       192       195       198       193       192       194
       193       192       195       194       192       195       195       198       199
       195       198       200       195       198       204       196       195       197
       196       195       198       197       195       198       198       200       201
       198       200       202       198       200       203       198       204       205
       198       204       206       198       204       207       199       198       200
       199       198       204       200       198       204       201       200       202
       201       200       203       202       200       203       205       204       206
       205       204       207       206       204       207       208       212       213
       208       212       214       208       212       215       209       208       210
       209       208       211       209       208       212       210       208       211
       210       208       212       211       208       212       212       215       216
       212       215       217       212       215       221       213       212       214
       213       212       215       214       212       215       215       221       218
       216       215       217       216       215       221       217       215       221
       218       222       223       219       218       220       219       218       221
       219       218       222       220       218       221       220       218       222
       221       218       222       222       223       224       222       223       225
       222       223       226       223       226       227       223       226       228
       223       226       234       224       223       225       224       223       226
       225       223       226       226       228       229       226       234       235
       226       234       236       226       234       237       227       226       228
       227       226       234       228       226       234       228       229       230
       228       229       231       229       231       232       229       231       233
       229       231       243       230       229       231       231       243       244
       231       243       245       231       243       246       232       231       233
       232       231       243       233       231       243       234       237       238
       235       234       236       235       234       237       236       234       237
       237       238       239       237       238       240       238       240       241
       238       240       242       238       240       290       239       238       240
       240       290       291       240       290       292       240       290       293
       241       240       242       241       240       290       242       240       290
       243       246       247       243       246       248       243       246       249
       244       243       245       244       243       246       245       243       246
       246       249       250       246       249       251       246       249       252
       247       246       248       247       246       249       248       246       249
       249       252       253       249       252       254       249       252       255
       250       249       251       250       249       252       251       249       252
       252       255       256       252       255       257       252       255       258
       253       252       254       253       252       255       254       252       255
       255       258       259       255       258       260       255       258       261
       256       255       257       256       255       258       257       255       258
       258       261       262       258       261       263       259       258       260
       259       258       261       260       258       261       261       263       264
       261       263       265       262       261       263       263       265       266
       263       265       267       263       265       268       264       263       265
       265       268       269       265       268       270       265       268       271
       266       265       267       266       265       268       267       265       268
       268       271       272       268       271       273       268       271       274
       269       268       270       269       268       271       270       268       271
       271       274       275       271       274       276       271       274       277
       272       271       273       272       271       274       273       271       274
       274       277       278       274       277       279       274       277       280
       275       274       276       275       274       277       276       274       277
       277       280       281       277       280       282       277       280       283
       278       277       279       278       277       280       279       277       280
       280       283       284       280       283       285       280       283       286
       281       280       282       281       280       283       282       280       283
       283       286       287       283       286       288       283       286       289
       284       283       285       284       283       286       285       283       286
       287       286       288       287       286       289       288       286       289
       290       293       294       290       293       295       290       293       296
       291       290       292       291       290       293       292       290       293
       293       296       297       293       296       298       293       296       299
       294       293       295       294       293       296       295       293       296
       296       299       300       296       299       301       296       299       302
       297       296       298       297       296       299       298       296       299
       299       302       303       299       302       304       299       302       305
       300       299       301       300       299       302       301       299       302
       302       305       306       302       305       307       302       305       308
       303       302       304       303       302       305       304       302       305
       305       308       309       305       308       310       305       308       311
       306       305       307       306       305       308       307       305       308
       308       311       312       308       311       313       308       311       314
       309       308       310       309       308       311       310       308       311
       311       314       315       311       314       316       311       314       317
       312       311       313       312       311       314       313       311       314
       314       317       318       314       317       319       314       317       320
       315       314       316       315       314       317       316       314       317
       317       320       321       317       320       322       317       320       323
       318       317       319       318       317       320       319       317       320
       320       323       324       320       323       325       320       323       326
       321       320       322       321       320       323       322       320       323
       323       326       327       323       326       328       323       326       329
       324       323       325       324       323       326       325       323       326
       326       329       330       326       329       331       326       329       332
       327       326       328       327       326       329       328       326       329
       329       332       333       329       332       334       329       332       335
       330       329       331       330       329       332       331       329       332
       332       335       336       332       335       337       332       335       338
       333       332       334       333       332       335       334       332       335
       336       335       337       336       335       338       337       335       338
       339       341       342       339       343       344       339       343       345
       339       343       346       339       385       382       339       385       386
       339       385       387       340       339       341       340       339       343
       340       339       385       341       339       343       341       339       385
       343       339       385       343       346       347       343       346       377
       344       343       345       344       343       346       345       343       346
       346       347       348       346       347       349       346       377       375
       346       377       378       346       377       382       347       346       377
       347       349       350       347       349       351       347       349       352
       348       347       349       349       352       353       349       352       354
       349       352       375       350       349       351       350       349       352
       351       349       352       352       354       355       352       354       356
       352       354       364       352       375       372       352       375       376
       352       375       377       353       352       354       353       352       375
       354       352       375       354       356       357       354       356       358
       354       356       359       354       364       362       354       364       365
       354       364       369       355       354       356       355       354       364
       356       354       364       356       359       360       356       359       361
       356       359       362       357       356       358       357       356       359
       358       356       359       359       362       363       359       362       364
       359       362       388       360       359       361       360       359       362
       361       359       362       362       364       365       362       364       369
       362       388       389       362       388       390       362       388       394
       363       362       364       363       362       388       364       362       388
       364       365       366       364       365       367       364       365       368
       364       369       370       364       369       371       364       369       372
       365       364       369       366       365       367       366       365       368
       367       365       368       369       372       373       369       372       374
       369       372       375       370       369       371       370       369       372
       371       369       372       372       375       376       372       375       377
       373       372       374       373       372       375       374       372       375
       375       377       378       375       377       382       376       375       377
       377       378       379       377       378       380       377       378       381
       377       382       383       377       382       384       377       382       385
       378       377       382       379       378       380       379       378       381
       380       378       381       382       385       386       382       385       387
       383       382       384       383       382       385       384       382       385
       386       385       387       388       390       391       388       390       392
       388       390       393       388       394       395       388       394       396
       388       394       397       389       388       390       389       388       394
       390       388       394       391       390       392       391       390       393
       392       390       393       394       397       398       394       397       399
       394       397       400       395       394       396       395       394       397
       396       394       397       397       400       401       397       400       402
       397       400       403       398       397       399       398       397       400
       399       397       400       400       403       404       400       403       405
       400       403       409       401       400       402       401       400       403
       402       400       403       403       405       406       403       405       407
       403       405       408       403       409       410       403       409       411
       403       409       412       404       403       405       404       403       409
       405       403       409       406       405       407       406       405       408
       407       405       408       410       409       411       410       409       412
       411       409       412       413       414       415       413       414       416
       413       414       429       413       417       418       413       417       419
       413       417       420       413       421       422       413       421       423
       413       421       424       413       425       426       413       425       427
       413       425       428       414       413       417       414       413       421
       414       413       425       414       429       430       414       429       431
       414       429       435       415       414       416       415       414       429
       416       414       429       417       413       421       417       413       425
       418       417       419       418       417       420       419       417       420
       421       413       425       422       421       423       422       421       424
       423       421       424       426       425       427       426       425       428
       427       425       428       429       435       432       430       429       431
       430       429       435       431       429       435       432       436       437
       433       432       434       433       432       435       433       432       436
       434       432       435       434       432       436       435       432       436
       436       437       438       436       437       439       436       437       440
       437       440       441       437       440       442       437       440       448
       438       437       439       438       437       440       439       437       440
       440       442       443       440       448       449       440       448       450
       440       448       451       441       440       442       441       440       448
       442       440       448       442       443       444       442       443       445
       443       445       446       443       445       447       443       445       457
       444       443       445       445       457       458       445       457       459
       445       457       460       446       445       447       446       445       457
       447       445       457       448       451       452       449       448       450
       449       448       451       450       448       451       451       452       453
       451       452       454       452       454       455       452       454       456
       452       454       504       453       452       454       454       504       505
       454       504       506       454       504       507       455       454       456
       455       454       504       456       454       504       457       460       461
       457       460       462       457       460       463       458       457       459
       458       457       460       459       457       460       460       463       464
       460       463       465       461       460       462       461       460       463
       462       460       463       463       465       466       463       465       467
       464       463       465       465       467       468       465       467       469
       465       467       470       466       465       467       467       470       471
       467       470       472       468       467       469       468       467       470
       469       467       470       470       472       473       470       472       474
       471       470       472       472       474       475       472       474       476
       472       474       477       473       472       474       474       477       478
       474       477       479       475       474       476       475       474       477
       476       474       477       477       479       480       477       479       481
       478       477       479       479       481       482       479       481       483
       479       481       484       480       479       481       481       484       485
       481       484       486       482       481       483       482       481       484
       483       481       484       484       486       487       484       486       488
       485       484       486       486       488       489       486       488       490
       486       488       491       487       486       488       488       491       492
       488       491       493       488       491       494       489       488       490
       489       488       491       490       488       491       491       494       495
       491       494       496       491       494       497       492       491       493
       492       491       494       493       491       494       494       497       498
       494       497       499       494       497       500       495       494       496
       495       494       497       496       494       497       497       500       501
       497       500       502       497       500       503       498       497       499
       498       497       500       499       497       500       501       500       502
       501       500       503       502       500       503       504       507       508
       504       507       509       504       507       510       505       504       506
       505       504       507       506       504       507       507       510       511
       507       510       512       507       510       513       508       507       509
       508       507       510       509       507       510       510       513       514
       510       513       515       510       513       516       511       510       512
       511       510       513       512       510       513       513       516       517
       513       516       518       513       516       519       514       513       515
       514       513       516       515       513       516       516       519       520
       516       519       521       516       519       522       517       516       518
       517       516       519       518       516       519       519       522       523
       519       522       524       519       522       525       520       519       521
       520       519       522       521       519       522       522       525       526
       522       525       527       522       525       528       523       522       524
       523       522       525       524       522       525       525       528       529
       525       528       530       525       528       531       526       525       527
       526       525       528       527       525       528       528       531       532
       528       531       533       528       531       534       529       528       530
       529       528       531       530       528       531       531       534       535
       531       534       536       531       534       537       532       531       533
       532       531       534       533       531       534       534       537       538
       534       537       539       534       537       540       535       534       536
       535       534       537       536       534       537       537       540       541
       537       540       542       537       540       543       538       537       539
       538       537       540       539       537       540       540       543       544
       540       543       545       540       543       546       541       540       542
       541       540       543       542       540       543       543       546       547
       543       546       548       543       546       549       544       543       545
       544       543       546       545       543       546       546       549       550
       546       549       551       546       549       552       547       546       548
       547       546       549       548       546       549       550       549       551
       550       549       552       551       549       552       553       554       555
       553       554       556       553       554       557       553       558       559
       553       558       560       553       558       561       553       562       563
       553       562       564       553       562       565       553       566       567
       553       566       568       553       566       569       554       553       558
       554       553       562       554       553       566       555       554       556
       555       554       557       556       554       557       558       553       562
       558       553       566       559       558       560       559       558       561
       560       558       561       562       553       566       563       562       564
       563       562       565       564       562       565       566       569       570
       566       569       571       566       569       576       567       566       568
       567       566       569       568       566       569       569       576       572
       570       569       571       570       569       576       571       569       576
       572       575       577       573       572       574       573       572       575
       573       572       576       574       572       575       574       572       576
       575       572       576       575       577       578       575       577       579
       575       577       582       577       582       580       577       582       583
       577       582       584       578       577       579       578       577       582
       579       577       582       580       582       583       580       582       584
       580       632       633       580       632       634       581       580       582
       581       580       632       582       580       632       582       584       585
       582       584       586       582       584       588       583       582       584
       584       586       587       584       588       589       584       588       590
       585       584       586       585       584       588       586       584       588
       588       590       591       588       590       592       589       588       590
       590       592       593       590       592       594       590       592       595
       591       590       592       592       595       596       592       595       597
       592       595       598       593       592       594       593       592       595
       594       592       595       595       598       599       595       598       600
       595       598       601       596       595       597       596       595       598
       597       595       598       598       601       602       598       601       603
       598       601       604       599       598       600       599       598       601
       600       598       601       601       604       605       601       604       606
       601       604       607       602       601       603       602       601       604
       603       601       604       604       607       608       604       607       609
       604       607       610       605       604       606       605       604       607
       606       604       607       607       610       611       607       610       612
       607       610       613       608       607       609       608       607       610
       609       607       610       610       613       614       610       613       615
       610       613       616       611       610       612       611       610       613
       612       610       613       613       616       617       613       616       618
       613       616       619       614       613       615       614       613       616
       615       613       616       616       619       620       616       619       621
       616       619       622       617       616       618       617       616       619
       618       616       619       619       622       623       619       622       624
       619       622       625       620       619       621       620       619       622
       621       619       622       622       625       626       622       625       627
       622       625       628       623       622       624       623       622       625
       624       622       625       625       628       629       625       628       630
       625       628       631       626       625       627       626       625       628
       627       625       628       629       628       630       629       628       631
       630       628       631       632       634       635       632       634       636
       632       634       637       633       632       634       634       637       638
       634       637       639       634       637       640       635       634       636
       635       634       637       636       634       637       637       640       641
       637       640       642       637       640       643       638       637       639
       638       637       640       639       637       640       640       643       644
       640       643       645       640       643       646       641       640       642
       641       640       643       642       640       643       643       646       647
       643       646       648       643       646       649       644       643       645
       644       643       646       645       643       646       646       649       650
       646       649       651       646       649       652       647       646       648
       647       646       649       648       646       649       649       652       653
       649       652       654       649       652       655       650       649       651
       650       649       652       651       649       652       652       655       656
       652       655       657       653       652       654       653       652       655
       654       652       655       655       657       658       655       657       659
       656       655       657       657       659       660       657       659       661
       657       659       662       658       657       659       659       662       663
       659       662       664       659       662       665       660       659       661
       660       659       662       661       659       662       662       665       666
       662       665       667       662       665       668       663       662       664
       663       662       665       664       662       665       665       668       669
       665       668       670       665       668       671       666       665       667
       666       665       668       667       665       668       668       671       672
       668       671       673       668       671       674       669       668       670
       669       668       671       670       668       671       671       674       675
       671       674       676       671       674       677       672       671       673
       672       671       674       673       671       674       674       677       678
       674       677       679       674       677       680       675       674       676
       675       674       677       676       674       677       677       680       681
       677       680       682       677       680       683       678       677       679
       678       677       680       679       677       680       681       680       682
       681       680       683       682       680       683       684       686       687
       684       688       689       684       688       690       684       688       691
       684       730       727       684       730       731       684       730       732
       685       684       686       685       684       688       685       684       730
       686       684       688       686       684       730       688       684       730
       688       691       692       688       691       722       689       688       690
       689       688       691       690       688       691       691       692       693
       691       692       694       691       722       720       691       722       723
       691       722       727       692       691       722       692       694       695
       692       694       696       692       694       697       693       692       694
       694       697       698       694       697       699       694       697       720
       695       694       696       695       694       697       696       694       697
       697       699       700       697       699       701       697       699       709
       697       720       717       697       720       721       697       720       722
       698       697       699       698       697       720       699       697       720
       699       701       702       699       701       703       699       701       704
       699       709       707       699       709       710       699       709       714
       700       699       701       700       699       709       701       699       709
       701       704       705       701       704       706       701       704       707
       702       701       703       702       701       704       703       701       704
       704       707       708       704       707       709       704       707       733
       705       704       706       705       704       707       706       704       707
       707       709       710       707       709       714       707       733       734
       707       733       735       707       733       739       708       707       709
       708       707       733       709       707       733       709       710       711
       709       710       712       709       710       713       709       714       715
       709       714       716       709       714       717       710       709       714
       711       710       712       711       710       713       712       710       713
       714       717       718       714       717       719       714       717       720
       715       714       716       715       714       717       716       714       717
       717       720       721       717       720       722       718       717       719
       718       717       720       719       717       720       720       722       723
       720       722       727       721       720       722       722       723       724
       722       723       725       722       723       726       722       727       728
       722       727       729       722       727       730       723       722       727
       724       723       725       724       723       726       725       723       726
       727       730       731       727       730       732       728       727       729
       728       727       730       729       727       730       731       730       732
       733       735       736       733       735       737       733       735       738
       733       739       740       733       739       741       733       739       742
       734       733       735       734       733       739       735       733       739
       736       735       737       736       735       738       737       735       738
       739       742       743       739       742       744       739       742       745
       740       739       741       740       739       742       741       739       742
       742       745       746       742       745       747       742       745       748
       743       742       744       743       742       745       744       742       745
       745       748       749       745       748       750       745       748       754
       746       745       747       746       745       748       747       745       748
       748       750       751       748       750       752       748       750       753
       748       754       755       748       754       756       748       754       757
       749       748       750       749       748       754       750       748       754
       751       750       752       751       750       753       752       750       753
       755       754       756       755       754       757       756       754       757
       758       760       761       758       762       763       758       762       764
       758       762       765       758       804       801       758       804       805
       758       804       806       759       758       760       759       758       762
       759       758       804       760       758       762       760       758       804
       762       758       804       762       765       766       762       765       796
       763       762       764       763       762       765       764       762       765
       765       766       767       765       766       768       765       796       794
       765       796       797       765       796       801       766       765       796
       766       768       769       766       768       770       766       768       771
       767       766       768       768       771       772       768       771       773
       768       771       794       769       768       770       769       768       771
       770       768       771       771       773       774       771       773       775
       771       773       783       771       794       791       771       794       795
       771       794       796       772       771       773       772       771       794
       773       771       794       773       775       776       773       775       777
       773       775       778       773       783       781       773       783       784
       773       783       788       774       773       775       774       773       783
       775       773       783       775       778       779       775       778       780
       775       778       781       776       775       777       776       775       778
       777       775       778       778       781       782       778       781       783
       778       781       807       779       778       780       779       778       781
       780       778       781       781       783       784       781       783       788
       781       807       808       781       807       809       781       807       813
       782       781       783       782       781       807       783       781       807
       783       784       785       783       784       786       783       784       787
       783       788       789       783       788       790       783       788       791
       784       783       788       785       784       786       785       784       787
       786       784       787       788       791       792       788       791       793
       788       791       794       789       788       790       789       788       791
       790       788       791       791       794       795       791       794       796
       792       791       793       792       791       794       793       791       794
       794       796       797       794       796       801       795       794       796
       796       797       798       796       797       799       796       797       800
       796       801       802       796       801       803       796       801       804
       797       796       801       798       797       799       798       797       800
       799       797       800       801       804       805       801       804       806
       802       801       803       802       801       804       803       801       804
       805       804       806       807       809       810       807       809       811
       807       809       812       807       813       814       807       813       815
       807       813       816       808       807       809       808       807       813
       809       807       813       810       809       811       810       809       812
       811       809       812       813       816       817       813       816       818
       813       816       819       814       813       815       814       813       816
       815       813       816       816       819       820       816       819       821
       816       819       822       817       816       818       817       816       819
       818       816       819       819       822       823       819       822       824
       819       822       828       820       819       821       820       819       822
       821       819       822       822       824       825       822       824       826
       822       824       827       822       828       829       822       828       830
       822       828       831       823       822       824       823       822       828
       824       822       828       825       824       826       825       824       827
       826       824       827       829       828       830       829       828       831
       830       828       831       832       833       834       832       833       835
       832       833       836       832       837       838       832       837       839
       832       837       840       832       841       842       832       841       843
       832       841       844       832       845       846       832       845       847
       832       845       848       833       832       837       833       832       841
       833       832       845       834       833       835       834       833       836
       835       833       836       837       832       841       837       832       845
       838       837       839       838       837       840       839       837       840
       841       832       845       842       841       843       842       841       844
       843       841       844       845       848       849       845       848       850
       845       848       855       846       845       847       846       845       848
       847       845       848       848       855       851       849       848       850
       849       848       855       850       848       855       851       854       856
       852       851       853       852       851       854       852       851       855
       853       851       854       853       851       855       854       851       855
       854       856       857       854       856       858       854       856       861
       856       861       859       856       861       862       856       861       863
       857       856       858       857       856       861       858       856       861
       859       861       862       859       861       863       859       911       912
       859       911       913       860       859       861       860       859       911
       861       859       911       861       863       864       861       863       865
       861       863       867       862       861       863       863       865       866
       863       867       868       863       867       869       864       863       865
       864       863       867       865       863       867       867       869       870
       867       869       871       868       867       869       869       871       872
       869       871       873       869       871       874       870       869       871
       871       874       875       871       874       876       871       874       877
       872       871       873       872       871       874       873       871       874
       874       877       878       874       877       879       874       877       880
       875       874       876       875       874       877       876       874       877
       877       880       881       877       880       882       877       880       883
       878       877       879       878       877       880       879       877       880
       880       883       884       880       883       885       880       883       886
       881       880       882       881       880       883       882       880       883
       883       886       887       883       886       888       883       886       889
       884       883       885       884       883       886       885       883       886
       886       889       890       886       889       891       886       889       892
       887       886       888       887       886       889       888       886       889
       889       892       893       889       892       894       889       892       895
       890       889       891       890       889       892       891       889       892
       892       895       896       892       895       897       892       895       898
       893       892       894       893       892       895       894       892       895
       895       898       899       895       898       900       895       898       901
       896       895       897       896       895       898       897       895       898
       898       901       902       898       901       903       898       901       904
       899       898       900       899       898       901       900       898       901
       901       904       905       901       904       906       901       904       907
       902       901       903       902       901       904       903       901       904
       904       907       908       904       907       909       904       907       910
       905       904       906       905       904       907       906       904       907
       908       907       909       908       907       910       909       907       910
       911       913       914       911       913       915       911       913       916
       912       911       913       913       916       917       913       916       918
       913       916       919       914       913       915       914       913       916
       915       913       916       916       919       920       916       919       921
       916       919       922       917       916       918       917       916       919
       918       916       919       919       922       923       919       922       924
       919       922       925       920       919       921       920       919       922
       921       919       922       922       925       926       922       925       927
       922       925       928       923       922       924       923       922       925
       924       922       925       925       928       929       925       928       930
       925       928       931       926       925       927       926       925       928
       927       925       928       928       931       932       928       931       933
       928       931       934       929       928       930       929       928       931
       930       928       931       931       934       935       931       934       936
       932       931       933       932       931       934       933       931       934
       934       936       937       934       936       938       935       934       936
       936       938       939       936       938       940       936       938       941
       937       936       938       938       941       942       938       941       943
       938       941       944       939       938       940       939       938       941
       940       938       941       941       944       945       941       944       946
       941       944       947       942       941       943       942       941       944
       943       941       944       944       947       948       944       947       949
       944       947       950       945       944       946       945       944       947
       946       944       947       947       950       951       947       950       952
       947       950       953       948       947       949       948       947       950
       949       947       950       950       953       954       950       953       955
       950       953       956       951       950       952       951       950       953
       952       950       953       953       956       957       953       956       958
       953       956       959       954       953       955       954       953       956
       955       953       956       956       959       960       956       959       961
       956       959       962       957       956       958       957       956       959
       958       956       959       960       959       961       960       959       962
       961       959       962       963       967       968       963       967       969
       963       967       970       964       963       965       964       963       966
       964       963       967       965       963       966       965       963       967
       966       963       967       967       970       971       967       970       972
       967       970       976       968       967       969       968       967       970
       969       967       970       970       976       973       971       970       972
       971       970       976       972       970       976       973       977       978
       974       973       975       974       973       976       974       973       977
       975       973       976       975       973       977       976       973       977
       977       978       979       977       978       980       977       978       981
       978       981       982       978       981       983       978       981       989
       979       978       980       979       978       981       980       978       981
       981       983       984       981       989       990       981       989       991
       981       989       992       982       981       983       982       981       989
       983       981       989       983       984       985       983       984       986
       984       986       987       984       986       988       984       986       998
       985       984       986       986       998       999       986       998      1000
       986       998      1001       987       986       988       987       986       998
       988       986       998       989       992       993       990       989       991
       990       989       992       991       989       992       992       993       994
       992       993       995       993       995       996       993       995       997
       993       995      1045       994       993       995       995      1045      1046
       995      1045      1047       995      1045      1048       996       995       997
       996       995      1045       997       995      1045       998      1001      1002
       998      1001      1003       998      1001      1004       999       998      1000
       999       998      1001      1000       998      1001      1001      1004      1005
      1001      1004      1006      1001      1004      1007      1002      1001      1003
      1002      1001      1004      1003      1001      1004      1004      1007      1008
      1004      1007      1009      1004      1007      1010      1005      1004      1006
      1005      1004      1007      1006      1004      1007      1007      1010      1011
      1007      1010      1012      1007      1010      1013      1008      1007      1009
      1008      1007      1010      1009      1007      1010      1010      1013      1014
      1010      1013      1015      1010      1013      1016      1011      1010      1012
      1011      1010      1013      1012      1010      1013      1013      1016      1017
      1013      1016      1018      1014      1013      1015      1014      1013      1016
      1015      1013      1016      1016      1018      1019      1016      1018      1020
      1017      1016      1018      1018      1020      1021      1018      1020      1022
      1018      1020      1023      1019      1018      1020      1020      1023      1024
      1020      1023      1025      1020      1023      1026      1021      1020      1022
      1021      1020      1023      1022      1020      1023      1023      1026      1027
      1023      1026      1028      1023      1026      1029      1024      1023      1025
      1024      1023      1026      1025      1023      1026      1026      1029      1030
      1026      1029      1031      1026      1029      1032      1027      1026      1028
      1027      1026      1029      1028      1026      1029      1029      1032      1033
      1029      1032      1034      1029      1032      1035      1030      1029      1031
      1030      1029      1032      1031      1029      1032      1032      1035      1036
      1032      1035      1037      1032      1035      1038      1033      1032      1034
      1033      1032      1035      1034      1032      1035      1035      1038      1039
      1035      1038      1040      1035      1038      1041      1036      1035      1037
      1036      1035      1038      1037      1035      1038      1038      1041      1042
      1038      1041      1043      1038      1041      1044      1039      1038      1040
      1039      1038      1041      1040      1038      1041      1042      1041      1043
      1042      1041      1044      1043      1041      1044      1045      1048      1049
      1045      1048      1050      1045      1048      1051      1046      1045      1047
      1046      1045      1048      1047      1045      1048      1048      1051      1052
      1048      1051      1053      1048      1051      1054      1049      1048      1050
      1049      1048      1051      1050      1048      1051      1051      1054      1055
      1051      1054      1056      1051      1054      1057      1052      1051      1053
      1052      1051      1054      1053      1051      1054      1054      1057      1058
      1054      1057      1059      1054      1057      1060      1055      1054      1056
      1055      1054      1057      1056      1054      1057      1057      1060      1061
      1057      1060      1062      1057      1060      1063      1058      1057      1059
      1058      1057      1060      1059      1057      1060      1060      1063      1064
      1060      1063      1065      1060      1063      1066      1061      1060      1062
      1061      1060      1063      1062      1060      1063      1063      1066      1067
      1063      1066      1068      1063      1066      1069      1064      1063      1065
      1064      1063      1066      1065      1063      1066      1066      1069      1070
      1066      1069      1071      1066      1069      1072      1067      1066      1068
      1067      1066      1069      1068      1066      1069      1069      1072      1073
      1069      1072      1074      1069      1072      1075      1070      1069      1071
      1070      1069      1072      1071      1069      1072      1072      1075      1076
      1072      1075      1077      1072      1075      1078      1073      1072      1074
      1073      1072      1075      1074      1072      1075      1075      1078      1079
      1075      1078      1080      1075      1078      1081      1076      1075      1077
      1076      1075      1078      1077      1075      1078      1078      1081      1082
      1078      1081      1083      1078      1081      1084      1079      1078      1080
      1079      1078      1081      1080      1078      1081      1081      1084      1085
      1081      1084      1086      1081      1084      1087      1082      1081      1083
      1082      1081      1084      1083      1081      1084      1084      1087      1088
      1084      1087      1089      1084      1087      1090      1085      1084      1086
      1085      1084      1087      1086      1084      1087      1087      1090      1091
      1087      1090      1092      1087      1090      1093      1088      1087      1089
      1088      1087      1090      1089      1087      1090      1091      1090      1092
      1091      1090      1093      1092      1090      1093      1094      1095      1096
      1094      1095      1097      1094      1095      1098      1094      1099      1100
      1094      1099      1101      1094      1099      1102      1094      1103      1104
      1094      1103      1105      1094      1103      1106      1094      1107      1108
      1094      1107      1109      1094      1107      1110      1095      1094      1099
      1095      1094      1103      1095      1094      1107      1096      1095      1097
      1096      1095      1098      1097      1095      1098      1099      1094      1103
      1099      1094      1107      1100      1099      1101      1100      1099      1102
      1101      1099      1102      1103      1094      1107      1104      1103      1105
      1104      1103      1106      1105      1103      1106      1107      1110      1111
      1107      1110      1112      1107      1110      1117      1108      1107      1109
      1108      1107      1110      1109      1107      1110      1110      1117      1113
      1111      1110      1112      1111      1110      1117      1112      1110      1117
      1113      1116      1118      1114      1113      1115      1114      1113      1116
      1114      1113      1117      1115      1113      1116      1115      1113      1117
      1116      1113      1117      1116      1118      1119      1116      1118      1120
      1116      1118      1123      1118      1123      1121      1118      1123      1124
      1118      1123      1125      1119      1118      1120      1119      1118      1123
      1120      1118      1123      1121      1123      1124      1121      1123      1125
      1121      1173      1174      1121      1173      1175      1122      1121      1123
      1122      1121      1173      1123      1121      1173      1123      1125      1126
      1123      1125      1127      1123      1125      1129      1124      1123      1125
      1125      1127      1128      1125      1129      1130      1125      1129      1131
      1126      1125      1127      1126      1125      1129      1127      1125      1129
      1129      1131      1132      1129      1131      1133      1130      1129      1131
      1131      1133      1134      1131      1133      1135      1131      1133      1136
      1132      1131      1133      1133      1136      1137      1133      1136      1138
      1133      1136      1139      1134      1133      1135      1134      1133      1136
      1135      1133      1136      1136      1139      1140      1136      1139      1141
      1136      1139      1142      1137      1136      1138      1137      1136      1139
      1138      1136      1139      1139      1142      1143      1139      1142      1144
      1139      1142      1145      1140      1139      1141      1140      1139      1142
      1141      1139      1142      1142      1145      1146      1142      1145      1147
      1142      1145      1148      1143      1142      1144      1143      1142      1145
      1144      1142      1145      1145      1148      1149      1145      1148      1150
      1145      1148      1151      1146      1145      1147      1146      1145      1148
      1147      1145      1148      1148      1151      1152      1148      1151      1153
      1148      1151      1154      1149      1148      1150      1149      1148      1151
      1150      1148      1151      1151      1154      1155      1151      1154      1156
      1151      1154      1157      1152      1151      1153      1152      1151      1154
      1153      1151      1154      1154      1157      1158      1154      1157      1159
      1154      1157      1160      1155      1154      1156      1155      1154      1157
      1156      1154      1157      1157      1160      1161      1157      1160      1162
      1157      1160      1163      1158      1157      1159      1158      1157      1160
      1159      1157      1160      1160      1163      1164      1160      1163      1165
      1160      1163      1166      1161      1160      1162      1161      1160      1163
      1162      1160      1163      1163      1166      1167      1163      1166      1168
      1163      1166      1169      1164      1163      1165      1164      1163      1166
      1165      1163      1166      1166      1169      1170      1166      1169      1171
      1166      1169      1172      1167      1166      1168      1167      1166      1169
      1168      1166      1169      1170      1169      1171      1170      1169      1172
      1171      1169      1172      1173      1175      1176      1173      1175      1177
      1173      1175      1178      1174      1173      1175      1175      1178      1179
      1175      1178      1180      1175      1178      1181      1176      1175      1177
      1176      1175      1178      1177      1175      1178      1178      1181      1182
      1178      1181      1183      1178      1181      1184      1179      1178      1180
      1179      1178      1181      1180      1178      1181      1181      1184      1185
      1181      1184      1186      1181      1184      1187      1182      1181      1183
      1182      1181      1184      1183      1181      1184      1184      1187      1188
      1184      1187      1189      1184      1187      1190      1185      1184      1186
      1185      1184      1187      1186      1184      1187      1187      1190      1191
      1187      1190      1192      1187      1190      1193      1188      1187      1189
      1188      1187      1190      1189      1187      1190      1190      1193      1194
      1190      1193      1195      1190      1193      1196      1191      1190      1192
      1191      1190      1193      1192      1190      1193      1193      1196      1197
      1193      1196      1198      1194      1193      1195      1194      1193      1196
      1195      1193      1196      1196      1198      1199      1196      1198      1200
      1197      1196      1198      1198      1200      1201      1198      1200      1202
      1198      1200      1203      1199      1198      1200      1200      1203      1204
      1200      1203      1205      1200      1203      1206      1201      1200      1202
      1201      1200      1203      1202      1200      1203      1203      1206      1207
      1203      1206      1208      1203      1206      1209      1204      1203      1205
      1204      1203      1206      1205      1203      1206      1206      1209      1210
      1206      1209      1211      1206      1209      1212      1207      1206      1208
      1207      1206      1209      1208      1206      1209      1209      1212      1213
      1209      1212      1214      1209      1212      1215      1210      1209      1211
      1210      1209      1212      1211      1209      1212      1212      1215      1216
      1212      1215      1217      1212      1215      1218      1213      1212      1214
      1213      1212      1215      1214      1212      1215      1215      1218      1219
      1215      1218      1220      1215      1218      1221      1216      1215      1217
      1216      1215      1218      1217      1215      1218      1218      1221      1222
      1218      1221      1223      1218      1221      1224      1219      1218      1220
      1219      1218      1221      1220      1218      1221      1222      1221      1223
      1222      1221      1224      1223      1221      1224      1225      1227      1228
      1225      1229      1230      1225      1229      1231      1225      1229      1232
      1225      1271      1268      1225      1271      1272      1225      1271      1273
      1226      1225      1227      1226      1225      1229      1226      1225      1271
      1227      1225      1229      1227      1225      1271      1229      1225      1271
      1229      1232      1233      1229      1232      1263      1230      1229      1231
      1230      1229      1232      1231      1229      1232      1232      1233      1234
      1232      1233      1235      1232      1263      1261      1232      1263      1264
      1232      1263      1268      1233      1232      1263      1233      1235      1236
      1233      1235      1237      1233      1235      1238      1234      1233      1235
      1235      1238      1239      1235      1238      1240      1235      1238      1261
      1236      1235      1237      1236      1235      1238      1237      1235      1238
      1238      1240      1241      1238      1240      1242      1238      1240      1250
      1238      1261      1258      1238      1261      1262      1238      1261      1263
      1239      1238      1240      1239      1238      1261      1240      1238      1261
      1240      1242      1243      1240      1242      1244      1240      1242      1245
      1240      1250      1248      1240      1250      1251      1240      1250      1255
      1241      1240      1242      1241      1240      1250      1242      1240      1250
      1242      1245      1246      1242      1245      1247      1242      1245      1248
      1243      1242      1244      1243      1242      1245      1244      1242      1245
      1245      1248      1249      1245      1248      1250      1245      1248      1274
      1246      1245      1247      1246      1245      1248      1247      1245      1248
      1248      1250      1251      1248      1250      1255      1248      1274      1275
      1248      1274      1276      1248      1274      1280      1249      1248      1250
      1249      1248      1274      1250      1248      1274      1250      1251      1252
      1250      1251      1253      1250      1251      1254      1250      1255      1256
      1250      1255      1257      1250      1255      1258      1251      1250      1255
      1252      1251      1253      1252      1251      1254      1253      1251      1254
      1255      1258      1259      1255      1258      1260      1255      1258      1261
      1256      1255      1257      1256      1255      1258      1257      1255      1258
      1258      1261      1262      1258      1261      1263      1259      1258      1260
      1259      1258      1261      1260      1258      1261      1261      1263      1264
      1261      1263      1268      1262      1261      1263      1263      1264      1265
      1263      1264      1266      1263      1264      1267      1263      1268      1269
      1263      1268      1270      1263      1268      1271      1264      1263      1268
      1265      1264      1266      1265      1264      1267      1266      1264      1267
      1268      1271      1272      1268      1271      1273      1269      1268      1270
      1269      1268      1271      1270      1268      1271      1272      1271      1273
      1274      1276      1277      1274      1276      1278      1274      1276      1279
      1274      1280      1281      1274      1280      1282      1274      1280      1283
      1275      1274      1276      1275      1274      1280      1276      1274      1280
      1277      1276      1278      1277      1276      1279      1278      1276      1279
      1280      1283      1284      1280      1283      1285      1280      1283      1286
      1281      1280      1282      1281      1280      1283      1282      1280      1283
      1283      1286      1287      1283      1286      1288      1283      1286      1289
      1284      1283      1285      1284      1283      1286      1285      1283      1286
      1286      1289      1290      1286      1289      1291      1286      1289      1295
      1287      1286      1288      1287      1286      1289      1288      1286      1289
      1289      1291      1292      1289      1291      1293      1289      1291      1294
      1289      1295      1296      1289      1295      1297      1289      1295      1298
      1290      1289      1291      1290      1289      1295      1291      1289      1295
      1292      1291      1293      1292      1291      1294      1293      1291      1294
      1296      1295      1297      1296      1295      1298      1297      1295      1298
      1299      1301      1302      1299      1303      1304      1299      1303      1305
      1299      1303      1306      1299      1345      1342      1299      1345      1346
      1299      1345      1347      1300      1299      1301      1300      1299      1303
      1300      1299      1345      1301      1299      1303      1301      1299      1345
      1303      1299      1345      1303      1306      1307      1303      1306      1337
      1304      1303      1305      1304      1303      1306      1305      1303      1306
      1306      1307      1308      1306      1307      1309      1306      1337      1335
      1306      1337      1338      1306      1337      1342      1307      1306      1337
      1307      1309      1310      1307      1309      1311      1307      1309      1312
      1308      1307      1309      1309      1312      1313      1309      1312      1314
      1309      1312      1335      1310      1309      1311      1310      1309      1312
      1311      1309      1312      1312      1314      1315      1312      1314      1316
      1312      1314      1324      1312      1335      1332      1312      1335      1336
      1312      1335      1337      1313      1312      1314      1313      1312      1335
      1314      1312      1335      1314      1316      1317      1314      1316      1318
      1314      1316      1319      1314      1324      1322      1314      1324      1325
      1314      1324      1329      1315      1314      1316      1315      1314      1324
      1316      1314      1324      1316      1319      1320      1316      1319      1321
      1316      1319      1322      1317      1316      1318      1317      1316      1319
      1318      1316      1319      1319      1322      1323      1319      1322      1324
      1319      1322      1348      1320      1319      1321      1320      1319      1322
      1321      1319      1322      1322      1324      1325      1322      1324      1329
      1322      1348      1349      1322      1348      1350      1322      1348      1354
      1323      1322      1324      1323      1322      1348      1324      1322      1348
      1324      1325      1326      1324      1325      1327      1324      1325      1328
      1324      1329      1330      1324      1329      1331      1324      1329      1332
      1325      1324      1329      1326      1325      1327      1326      1325      1328
      1327      1325      1328      1329      1332      1333      1329      1332      1334
      1329      1332      1335      1330      1329      1331      1330      1329      1332
      1331      1329      1332      1332      1335      1336      1332      1335      1337
      1333      1332      1334      1333      1332      1335      1334      1332      1335
      1335      1337      1338      1335      1337      1342      1336      1335      1337
      1337      1338      1339      1337      1338      1340      1337      1338      1341
      1337      1342      1343      1337      1342      1344      1337      1342      1345
      1338      1337      1342      1339      1338      1340      1339      1338      1341
      1340      1338      1341      1342      1345      1346      1342      1345      1347
      1343      1342      1344      1343      1342      1345      1344      1342      1345
      1346      1345      1347      1348      1350      1351      1348      1350      1352
      1348      1350      1353      1348      1354      1355      1348      1354      1356
      1348      1354      1357      1349      1348      1350      1349      1348      1354
      1350      1348      1354      1351      1350      1352      1351      1350      1353
      1352      1350      1353      1354      1357      1358      1354      1357      1359
      1354      1357      1360      1355      1354      1356      1355      1354      1357
      1356      1354      1357      1357      1360      1361      1357      1360      1362
      1357      1360      1363      1358      1357      1359      1358      1357      1360
      1359      1357      1360      1360      1363      1364      1360      1363      1365
      1360      1363      1369      1361      1360      1362      1361      1360      1363
      1362      1360      1363      1363      1365      1366      1363      1365      1367
      1363      1365      1368      1363      1369      1370      1363      1369      1371
      1363      1369      1372      1364      1363      1365      1364      1363      1369
      1365      1363      1369      1366      1365      1367      1366      1365      1368
      1367      1365      1368      1370      1369      1371      1370      1369      1372
      1371      1369      1372      1373      1375      1376      1373      1377      1378
      1373      1377      1379      1373      1377      1380      1373      1419      1416
      1373      1419      1420      1373      1419      1421      1374      1373      1375
      1374      1373      1377      1374      1373      1419      1375      1373      1377
      1375      1373      1419      1377      1373      1419      1377      1380      1381
      1377      1380      1411      1378      1377      1379      1378      1377      1380
      1379      1377      1380      1380      1381      1382      1380      1381      1383
      1380      1411      1409      1380      1411      1412      1380      1411      1416
      1381      1380      1411      1381      1383      1384      1381      1383      1385
      1381      1383      1386      1382      1381      1383      1383      1386      1387
      1383      1386      1388      1383      1386      1409      1384      1383      1385
      1384      1383      1386      1385      1383      1386      1386      1388      1389
      1386      1388      1390      1386      1388      1398      1386      1409      1406
      1386      1409      1410      1386      1409      1411      1387      1386      1388
      1387      1386      1409      1388      1386      1409      1388      1390      1391
      1388      1390      1392      1388      1390      1393      1388      1398      1396
      1388      1398      1399      1388      1398      1403      1389      1388      1390
      1389      1388      1398      1390      1388      1398      1390      1393      1394
      1390      1393      1395      1390      1393      1396      1391      1390      1392
      1391      1390      1393      1392      1390      1393      1393      1396      1397
      1393      1396      1398      1393      1396      1422      1394      1393      1395
      1394      1393      1396      1395      1393      1396      1396      1398      1399
      1396      1398      1403      1396      1422      1423      1396      1422      1424
      1396      1422      1428      1397      1396      1398      1397      1396      1422
      1398      1396      1422      1398      1399      1400      1398      1399      1401
      1398      1399      1402      1398      1403      1404      1398      1403      1405
      1398      1403      1406      1399      1398      1403      1400      1399      1401
      1400      1399      1402      1401      1399      1402      1403      1406      1407
      1403      1406      1408      1403      1406      1409      1404      1403      1405
      1404      1403      1406      1405      1403      1406      1406      1409      1410
      1406      1409      1411      1407      1406      1408      1407      1406      1409
      1408      1406      1409      1409      1411      1412      1409      1411      1416
      1410      1409      1411      1411      1412      1413      1411      1412      1414
      1411      1412      1415      1411      1416      1417      1411      1416      1418
      1411      1416      1419      1412      1411      1416      1413      1412      1414
      1413      1412      1415      1414      1412      1415      1416      1419      1420
      1416      1419      1421      1417      1416      1418      1417      1416      1419
      1418      1416      1419      1420      1419      1421      1422      1424      1425
      1422      1424      1426      1422      1424      1427      1422      1428      1429
      1422      1428      1430      1422      1428      1431      1423      1422      1424
      1423      1422      1428      1424      1422      1428      1425      1424      1426
      1425      1424      1427      1426      1424      1427      1428      1431      1432
      1428      1431      1433      1428      1431      1434      1429      1428      1430
      1429      1428      1431      1430      1428      1431      1431      1434      1435
      1431      1434      1436      1431      1434      1437      1432      1431      1433
      1432      1431      1434      1433      1431      1434      1434      1437      1438
      1434      1437      1439      1434      1437      1443      1435      1434      1436
      1435      1434      1437      1436      1434      1437      1437      1439      1440
      1437      1439      1441      1437      1439      1442      1437      1443      1444
      1437      1443      1445      1437      1443      1446      1438      1437      1439
      1438      1437      1443      1439      1437      1443      1440      1439      1441
      1440      1439      1442      1441      1439      1442      1444      1443      1445
      1444      1443      1446      1445      1443      1446      1447      1448      1449
      1447      1448      1450      1447      1448      1451      1447      1452      1453
      1447      1452      1454      1447      1452      1455      1447      1456      1457
      1447      1456      1458      1447      1456      1459      1447      1460      1461
      1447      1460      1462      1447      1460      1463      1448      1447      1452
      1448      1447      1456      1448      1447      1460      1449      1448      1450
      1449      1448      1451      1450      1448      1451      1452      1447      1456
      1452      1447      1460      1453      1452      1454      1453      1452      1455
      1454      1452      1455      1456      1447      1460      1457      1456      1458
      1457      1456      1459      1458      1456      1459      1460      1463      1464
      1460      1463      1465      1460      1463      1470      1461      1460      1462
      1461      1460      1463      1462      1460      1463      1463      1470      1466
      1464      1463      1465      1464      1463      1470      1465      1463      1470
      1466      1469      1471      1467      1466      1468      1467      1466      1469
      1467      1466      1470      1468      1466      1469      1468      1466      1470
      1469      1466      1470      1469      1471      1472      1469      1471      1473
      1469      1471      1476      1471      1476      1474      1471      1476      1477
      1471      1476      1478      1472      1471      1473      1472      1471      1476
      1473      1471      1476      1474      1476      1477      1474      1476      1478
      1474      1526      1527      1474      1526      1528      1475      1474      1476
      1475      1474      1526      1476      1474      1526      1476      1478      1479
      1476      1478      1480      1476      1478      1482      1477      1476      1478
      1478      1480      1481      1478      1482      1483      1478      1482      1484
      1479      1478      1480      1479      1478      1482      1480      1478      1482
      1482      1484      1485      1482      1484      1486      1483      1482      1484
      1484      1486      1487      1484      1486      1488      1484      1486      1489
      1485      1484      1486      1486      1489      1490      1486      1489      1491
      1486      1489      1492      1487      1486      1488      1487      1486      1489
      1488      1486      1489      1489      1492      1493      1489      1492      1494
      1489      1492      1495      1490      1489      1491      1490      1489      1492
      1491      1489      1492      1492      1495      1496      1492      1495      1497
      1492      1495      1498      1493      1492      1494      1493      1492      1495
      1494      1492      1495      1495      1498      1499      1495      1498      1500
      1495      1498      1501      1496      1495      1497      1496      1495      1498
      1497      1495      1498      1498      1501      1502      1498      1501      1503
      1498      1501      1504      1499      1498      1500      1499      1498      1501
      1500      1498      1501      1501      1504      1505      1501      1504      1506
      1501      1504      1507      1502      1501      1503      1502      1501      1504
      1503      1501      1504      1504      1507      1508      1504      1507      1509
      1504      1507      1510      1505      1504      1506      1505      1504      1507
      1506      1504      1507      1507      1510      1511      1507      1510      1512
      1507      1510      1513      1508      1507      1509      1508      1507      1510
      1509      1507      1510      1510      1513      1514      1510      1513      1515
      1510      1513      1516      1511      1510      1512      1511      1510      1513
      1512      1510      1513      1513      1516      1517      1513      1516      1518
      1513      1516      1519      1514      1513      1515      1514      1513      1516
      1515      1513      1516      1516      1519      1520      1516      1519      1521
      1516      1519      1522      1517      1516      1518      1517      1516      1519
      1518      1516      1519      1519      1522      1523      1519      1522      1524
      1519      1522      1525      1520      1519      1521      1520      1519      1522
      1521      1519      1522      1523      1522      1524      1523      1522      1525
      1524      1522      1525      1526      1528      1529      1526      1528      1530
      1526      1528      1531      1527      1526      1528      1528      1531      1532
      1528      1531      1533      1528      1531      1534      1529      1528      1530
      1529      1528      1531      1530      1528      1531      1531      1534      1535
      1531      1534      1536      1531      1534      1537      1532      1531      1533
      1532      1531      1534      1533      1531      1534      1534      1537      1538
      1534      1537      1539      1534      1537      1540      1535      1534      1536
      1535      1534      1537      1536      1534      1537      1537      1540      1541
      1537      1540      1542      1537      1540      1543      1538      1537      1539
      1538      1537      1540      1539      1537      1540      1540      1543      1544
      1540      1543      1545      1540      1543      1546      1541      1540      1542
      1541      1540      1543      1542      1540      1543      1543      1546      1547
      1543      1546      1548      1543      1546      1549      1544      1543      1545
      1544      1543      1546      1545      1543      1546      1546      1549      1550
      1546      1549      1551      1547      1546      1548      1547      1546      1549
      1548      1546      1549      1549      1551      1552      1549      1551      1553
      1550      1549      1551      1551      1553      1554      1551      1553      1555
      1551      1553      1556      1552      1551      1553      1553      1556      1557
      1553      1556      1558      1553      1556      1559      1554      1553      1555
      1554      1553      1556      1555      1553      1556      1556      1559      1560
      1556      1559      1561      1556      1559      1562      1557      1556      1558
      1557      1556      1559      1558      1556      1559      1559      1562      1563
      1559      1562      1564      1559      1562      1565      1560      1559      1561
      1560      1559      1562      1561      1559      1562      1562      1565      1566
      1562      1565      1567      1562      1565      1568      1563      1562      1564
      1563      1562      1565      1564      1562      1565      1565      1568      1569
      1565      1568      1570      1565      1568      1571      1566      1565      1567
      1566      1565      1568      1567      1565      1568      1568      1571      1572
      1568      1571      1573      1568      1571      1574      1569      1568      1570
      1569      1568      1571      1570      1568      1571      1571      1574      1575
      1571      1574      1576      1571      1574      1577      1572      1571      1573
      1572      1571      1574      1573      1571      1574      1575      1574      1576
      1575      1574      1577      1576      1574      1577      1578      1580      1581
      1578      1582      1583      1578      1582      1584      1578      1582      1585
      1578      1624      1621      1578      1624      1625      1578      1624      1626
      1579      1578      1580      1579      1578      1582      1579      1578      1624
      1580      1578      1582      1580      1578      1624      1582      1578      1624
      1582      1585      1586      1582      1585      1616      1583      1582      1584
      1583      1582      1585      1584      1582      1585      1585      1586      1587
      1585      1586      1588      1585      1616      1614      1585      1616      1617
      1585      1616      1621      1586      1585      1616      1586      1588      1589
      1586      1588      1590      1586      1588      1591      1587      1586      1588
      1588      1591      1592      1588      1591      1593      1588      1591      1614
      1589      1588      1590      1589      1588      1591      1590      1588      1591
      1591      1593      1594      1591      1593      1595      1591      1593      1603
      1591      1614      1611      1591      1614      1615      1591      1614      1616
      1592      1591      1593      1592      1591      1614      1593      1591      1614
      1593      1595      1596      1593      1595      1597      1593      1595      1598
      1593      1603      1601      1593      1603      1604      1593      1603      1608
      1594      1593      1595      1594      1593      1603      1595      1593      1603
      1595      1598      1599      1595      1598      1600      1595      1598      1601
      1596      1595      1597      1596      1595      1598      1597      1595      1598
      1598      1601      1602      1598      1601      1603      1598      1601      1627
      1599      1598      1600      1599      1598      1601      1600      1598      1601
      1601      1603      1604      1601      1603      1608      1601      1627      1628
      1601      1627      1629      1601      1627      1633      1602      1601      1603
      1602      1601      1627      1603      1601      1627      1603      1604      1605
      1603      1604      1606      1603      1604      1607      1603      1608      1609
      1603      1608      1610      1603      1608      1611      1604      1603      1608
      1605      1604      1606      1605      1604      1607      1606      1604      1607
      1608      1611      1612      1608      1611      1613      1608      1611      1614
      1609      1608      1610      1609      1608      1611      1610      1608      1611
      1611      1614      1615      1611      1614      1616      1612      1611      1613
      1612      1611      1614      1613      1611      1614      1614      1616      1617
      1614      1616      1621      1615      1614      1616      1616      1617      1618
      1616      1617      1619      1616      1617      1620      1616      1621      1622
      1616      1621      1623      1616      1621      1624      1617      1616      1621
      1618      1617      1619      1618      1617      1620      1619      1617      1620
      1621      1624      1625      1621      1624      1626      1622      1621      1623
      1622      1621      1624      1623      1621      1624      1625      1624      1626
      1627      1629      1630      1627      1629      1631      1627      1629      1632
      1627      1633      1634      1627      1633      1635      1627      1633      1636
      1628      1627      1629      1628      1627      1633      1629      1627      1633
      1630      1629      1631      1630      1629      1632      1631      1629      1632
      1633      1636      1637      1633      1636      1638      1633      1636      1639
      1634      1633      1635      1634      1633      1636      1635      1633      1636
      1636      1639      1640      1636      1639      1641      1636      1639      1642
      1637      1636      1638      1637      1636      1639      1638      1636      1639
      1639      1642      1643      1639      1642      1644      1639      1642      1648
      1640      1639      1641      1640      1639      1642      1641      1639      1642
      1642      1644      1645      1642      1644      1646      1642      1644      1647
      1642      1648      1649      1642      1648      1650      1642      1648      1651
      1643      1642      1644      1643      1642      1648      1644      1642      1648
      1645      1644      1646      1645      1644      1647      1646      1644      1647
      1649      1648      1650      1649      1648      1651      1650      1648      1651
      1652      1653      1654      1652      1653      1655      1652      1653      1656
      1652      1657      1658      1652      1657      1659      1652      1657      1660
      1652      1661      1662      1652      1661      1663      1652      1661      1664
      1652      1665      1666      1652      1665      1667      1652      1665      1668
      1653      1652      1657      1653      1652      1661      1653      1652      1665
      1654      1653      1655      1654      1653      1656      1655      1653      1656
      1657      1652      1661      1657      1652      1665      1658      1657      1659
      1658      1657      1660      1659      1657      1660      1661      1652      1665
      1662      1661      1663      1662      1661      1664      1663      1661      1664
      1665      1668      1669      1665      1668      1670      1665      1668      1675
      1666      1665      1667      1666      1665      1668      1667      1665      1668
      1668      1675      1671      1669      1668      1670      1669      1668      1675
      1670      1668      1675      1671      1674      1676      1672      1671      1673
      1672      1671      1674      1672      1671      1675      1673      1671      1674
      1673      1671      1675      1674      1671      1675      1674      1676      1677
      1674      1676      1678      1674      1676      1681      1676      1681      1679
      1676      1681      1682      1676      1681      1683      1677      1676      1678
      1677      1676      1681      1678      1676      1681      1679      1681      1682
      1679      1681      1683      1679      1731      1732      1679      1731      1733
      1680      1679      1681      1680      1679      1731      1681      1679      1731
      1681      1683      1684      1681      1683      1685      1681      1683      1687
      1682      1681      1683      1683      1685      1686      1683      1687      1688
      1683      1687      1689      1684      1683      1685      1684      1683      1687
      1685      1683      1687      1687      1689      1690      1687      1689      1691
      1688      1687      1689      1689      1691      1692      1689      1691      1693
      1689      1691      1694      1690      1689      1691      1691      1694      1695
      1691      1694      1696      1691      1694      1697      1692      1691      1693
      1692      1691      1694      1693      1691      1694      1694      1697      1698
      1694      1697      1699      1694      1697      1700      1695      1694      1696
      1695      1694      1697      1696      1694      1697      1697      1700      1701
      1697      1700      1702      1697      1700      1703      1698      1697      1699
      1698      1697      1700      1699      1697      1700      1700      1703      1704
      1700      1703      1705      1700      1703      1706      1701      1700      1702
      1701      1700      1703      1702      1700      1703      1703      1706      1707
      1703      1706      1708      1703      1706      1709      1704      1703      1705
      1704      1703      1706      1705      1703      1706      1706      1709      1710
      1706      1709      1711      1706      1709      1712      1707      1706      1708
      1707      1706      1709      1708      1706      1709      1709      1712      1713
      1709      1712      1714      1709      1712      1715      1710      1709      1711
      1710      1709      1712      1711      1709      1712      1712      1715      1716
      1712      1715      1717      1712      1715      1718      1713      1712      1714
      1713      1712      1715      1714      1712      1715      1715      1718      1719
      1715      1718      1720      1715      1718      1721      1716      1715      1717
      1716      1715      1718      1717      1715      1718      1718      1721      1722
      1718      1721      1723      1718      1721      1724      1719      1718      1720
      1719      1718      1721      1720      1718      1721      1721      1724      1725
      1721      1724      1726      1721      1724      1727      1722      1721      1723
      1722      1721      1724      1723      1721      1724      1724      1727      1728
      1724      1727      1729      1724      1727      1730      1725      1724      1726
      1725      1724      1727      1726      1724      1727      1728      1727      1729
      1728      1727      1730      1729      1727      1730      1731      1733      1734
      1731      1733      1735      1731      1733      1736      1732      1731      1733
      1733      1736      1737      1733      1736      1738      1733      1736      1739
      1734      1733      1735      1734      1733      1736      1735      1733      1736
      1736      1739      1740      1736      1739      1741      1736      1739      1742
      1737      1736      1738      1737      1736      1739      1738      1736      1739
      1739      1742      1743      1739      1742      1744      1739      1742      1745
      1740      1739      1741      1740      1739      1742      1741      1739      1742
      1742      1745      1746      1742      1745      1747      1742      1745      1748
      1743      1742      1744      1743      1742      1745      1744      1742      1745
      1745      1748      1749      1745      1748      1750      1745      1748      1751
      1746      1745      1747      1746      1745      1748      1747      1745      1748
      1748      1751      1752      1748      1751      1753      1748      1751      1754
      1749      1748      1750      1749      1748      1751      1750      1748      1751
      1751      1754      1755      1751      1754      1756      1752      1751      1753
      1752      1751      1754      1753      1751      1754      1754      1756      1757
      1754      1756      1758      1755      1754      1756      1756      1758      1759
      1756      1758      1760      1756      1758      1761      1757      1756      1758
      1758      1761      1762      1758      1761      1763      1758      1761      1764
      1759      1758      1760      1759      1758      1761      1760      1758      1761
      1761      1764      1765      1761      1764      1766      1761      1764      1767
      1762      1761      1763      1762      1761      1764      1763      1761      1764
      1764      1767      1768      1764      1767      1769      1764      1767      1770
      1765      1764      1766      1765      1764      1767      1766      1764      1767
      1767      1770      1771      1767      1770      1772      1767      1770      1773
      1768      1767      1769      1768      1767      1770      1769      1767      1770
      1770      1773      1774      1770      1773      1775      1770      1773      1776
      1771      1770      1772      1771      1770      1773      1772      1770      1773
      1773      1776      1777      1773      1776      1778      1773      1776      1779
      1774      1773      1775      1774      1773      1776      1775      1773      1776
      1776      1779      1780      1776      1779      1781      1776      1779      1782
      1777      1776      1778      1777      1776      1779      1778      1776      1779
      1780      1779      1781      1780      1779      1782      1781      1779      1782
      1783      1787      1788      1783      1787      1789      1783      1787      1790
      1784      1783      1785      1784      1783      1786      1784      1783      1787
      1785      1783      1786      1785      1783      1787      1786      1783      1787
      1787      1790      1791      1787      1790      1792      1787      1790      1796
      1788      1787      1789      1788      1787      1790      1789      1787      1790
      1790      1796      1793      1791      1790      1792      1791      1790      1796
      1792      1790      1796      1793      1797      1798      1794      1793      1795
      1794      1793      1796      1794      1793      1797      1795      1793      1796
      1795      1793      1797      1796      1793      1797      1797      1798      1799
      1797      1798      1800      1797      1798      1801      1798      1801      1802
      1798      1801      1803      1798      1801      1809      1799      1798      1800
      1799      1798      1801      1800      1798      1801      1801      1803      1804
      1801      1809      1810      1801      1809      1811      1801      1809      1812
      1802      1801      1803      1802      1801      1809      1803      1801      1809
      1803      1804      1805      1803      1804      1806      1804      1806      1807
      1804      1806      1808      1804      1806      1818      1805      1804      1806
      1806      1818      1819      1806      1818      1820      1806      1818      1821
      1807      1806      1808      1807      1806      1818      1808      1806      1818
      1809      1812      1813      1810      1809      1811      1810      1809      1812
      1811      1809      1812      1812      1813      1814      1812      1813      1815
      1813      1815      1816      1813      1815      1817      1813      1815      1865
      1814      1813      1815      1815      1865      1866      1815      1865      1867
      1815      1865      1868      1816      1815      1817      1816      1815      1865
      1817      1815      1865      1818      1821      1822      1818      1821      1823
      1818      1821      1824      1819      1818      1820      1819      1818      1821
      1820      1818      1821      1821      1824      1825      1821      1824      1826
      1821      1824      1827      1822      1821      1823      1822      1821      1824
      1823      1821      1824      1824      1827      1828      1824      1827      1829
      1824      1827      1830      1825      1824      1826      1825      1824      1827
      1826      1824      1827      1827      1830      1831      1827      1830      1832
      1827      1830      1833      1828      1827      1829      1828      1827      1830
      1829      1827      1830      1830      1833      1834      1830      1833      1835
      1830      1833      1836      1831      1830      1832      1831      1830      1833
      1832      1830      1833      1833      1836      1837      1833      1836      1838
      1834      1833      1835      1834      1833      1836      1835      1833      1836
      1836      1838      1839      1836      1838      1840      1837      1836      1838
      1838      1840      1841      1838      1840      1842      1838      1840      1843
      1839      1838      1840      1840      1843      1844      1840      1843      1845
      1840      1843      1846      1841      1840      1842      1841      1840      1843
      1842      1840      1843      1843      1846      1847      1843      1846      1848
      1843      1846      1849      1844      1843      1845      1844      1843      1846
      1845      1843      1846      1846      1849      1850      1846      1849      1851
      1846      1849      1852      1847      1846      1848      1847      1846      1849
      1848      1846      1849      1849      1852      1853      1849      1852      1854
      1849      1852      1855      1850      1849      1851      1850      1849      1852
      1851      1849      1852      1852      1855      1856      1852      1855      1857
      1852      1855      1858      1853      1852      1854      1853      1852      1855
      1854      1852      1855      1855      1858      1859      1855      1858      1860
      1855      1858      1861      1856      1855      1857      1856      1855      1858
      1857      1855      1858      1858      1861      1862      1858      1861      1863
      1858      1861      1864      1859      1858      1860      1859      1858      1861
      1860      1858      1861      1862      1861      1863      1862      1861      1864
      1863      1861      1864      1865      1868      1869      1865      1868      1870
      1865      1868      1871      1866      1865      1867      1866      1865      1868
      1867      1865      1868      1868      1871      1872      1868      1871      1873
      1868      1871      1874      1869      1868      1870      1869      1868      1871
      1870      1868      1871      1871      1874      1875      1871      1874      1876
      1871      1874      1877      1872      1871      1873      1872      1871      1874
      1873      1871      1874      1874      1877      1878      1874      1877      1879
      1874      1877      1880      1875      1874      1876      1875      1874      1877
      1876      1874      1877      1877      1880      1881      1877      1880      1882
      1877      1880      1883      1878      1877      1879      1878      1877      1880
      1879      1877      1880      1880      1883      1884      1880      1883      1885
      1880      1883      1886      1881      1880      1882      1881      1880      1883
      1882      1880      1883      1883      1886      1887      1883      1886      1888
      1883      1886      1889      1884      1883      1885      1884      1883      1886
      1885      1883      1886      1886      1889      1890      1886      1889      1891
      1886      1889      1892      1887      1886      1888      1887      1886      1889
      1888      1886      1889      1889      1892      1893      1889      1892      1894
      1889      1892      1895      1890      1889      1891      1890      1889      1892
      1891      1889      1892      1892      1895      1896      1892      1895      1897
      1892      1895      1898      1893      1892      1894      1893      1892      1895
      1894      1892      1895      1895      1898      1899      1895      1898      1900
      1895      1898      1901      1896      1895      1897      1896      1895      1898
      1897      1895      1898      1898      1901      1902      1898      1901      1903
      1898      1901      1904      1899      1898      1900      1899      1898      1901
      1900      1898      1901      1901      1904      1905      1901      1904      1906
      1901      1904      1907      1902      1901      1903      1902      1901      1904
      1903      1901      1904      1904      1907      1908      1904      1907      1909
      1904      1907      1910      1905      1904      1906      1905      1904      1907
      1906      1904      1907      1907      1910      1911      1907      1910      1912
      1907      1910      1913      1908      1907      1909      1908      1907      1910
      1909      1907      1910      1911      1910      1912      1911      1910      1913
      1912      1910      1913      1914      1916      1917      1914      1918      1919
      1914      1918      1920      1914      1918      1921      1914      1960      1957
      1914      1960      1961      1914      1960      1962      1915      1914      1916
      1915      1914      1918      1915      1914      1960      1916      1914      1918
      1916      1914      1960      1918      1914      1960      1918      1921      1922
      1918      1921      1952      1919      1918      1920      1919      1918      1921
      1920      1918      1921      1921      1922      1923      1921      1922      1924
      1921      1952      1950      1921      1952      1953      1921      1952      1957
      1922      1921      1952      1922      1924      1925      1922      1924      1926
      1922      1924      1927      1923      1922      1924      1924      1927      1928
      1924      1927      1929      1924      1927      1950      1925      1924      1926
      1925      1924      1927      1926      1924      1927      1927      1929      1930
      1927      1929      1931      1927      1929      1939      1927      1950      1947
      1927      1950      1951      1927      1950      1952      1928      1927      1929
      1928      1927      1950      1929      1927      1950      1929      1931      1932
      1929      1931      1933      1929      1931      1934      1929      1939      1937
      1929      1939      1940      1929      1939      1944      1930      1929      1931
      1930      1929      1939      1931      1929      1939      1931      1934      1935
      1931      1934      1936      1931      1934      1937      1932      1931      1933
      1932      1931      1934      1933      1931      1934      1934      1937      1938
      1934      1937      1939      1934      1937      1963      1935      1934      1936
      1935      1934      1937      1936      1934      1937      1937      1939      1940
      1937      1939      1944      1937      1963      1964      1937      1963      1965
      1937      1963      1969      1938      1937      1939      1938      1937      1963
      1939      1937      1963      1939      1940      1941      1939      1940      1942
      1939      1940      1943      1939      1944      1945      1939      1944      1946
      1939      1944      1947      1940      1939      1944      1941      1940      1942
      1941      1940      1943      1942      1940      1943      1944      1947      1948
      1944      1947      1949      1944      1947      1950      1945      1944      1946
      1945      1944      1947      1946      1944      1947      1947      1950      1951
      1947      1950      1952      1948      1947      1949      1948      1947      1950
      1949      1947      1950      1950      1952      1953      1950      1952      1957
      1951      1950      1952      1952      1953      1954      1952      1953      1955
      1952      1953      1956      1952      1957      1958      1952      1957      1959
      1952      1957      1960      1953      1952      1957      1954      1953      1955
      1954      1953      1956      1955      1953      1956      1957      1960      1961
      1957      1960      1962      1958      1957      1959      1958      1957      1960
      1959      1957      1960      1961      1960      1962      1963      1965      1966
      1963      1965      1967      1963      1965      1968      1963      1969      1970
      1963      1969      1971      1963      1969      1972      1964      1963      1965
      1964      1963      1969      1965      1963      1969      1966      1965      1967
      1966      1965      1968      1967      1965      1968      1969      1972      1973
      1969      1972      1974      1969      1972      1975      1970      1969      1971
      1970      1969      1972      1971      1969      1972      1972      1975      1976
      1972      1975      1977      1972      1975      1978      1973      1972      1974
      1973      1972      1975      1974      1972      1975      1975      1978      1979
      1975      1978      1980      1975      1978      1984      1976      1975      1977
      1976      1975      1978      1977      1975      1978      1978      1980      1981
      1978      1980      1982      1978      1980      1983      1978      1984      1985
      1978      1984      1986      1978      1984      1987      1979      1978      1980
      1979      1978      1984      1980      1978      1984      1981      1980      1982
      1981      1980      1983      1982      1980      1983      1985      1984      1986
      1985      1984      1987      1986      1984      1987      1988      1992      1993
      1988      1992      1994      1988      1992      1995      1989      1988      1990
      1989      1988      1991      1989      1988      1992      1990      1988      1991
      1990      1988      1992      1991      1988      1992      1992      1995      1996
      1992      1995      1997      1992      1995      2001      1993      1992      1994
      1993      1992      1995      1994      1992      1995      1995      2001      1998
      1996      1995      1997      1996      1995      2001      1997      1995      2001
      1998      2002      2003      1999      1998      2000      1999      1998      2001
      1999      1998      2002      2000      1998      2001      2000      1998      2002
      2001      1998      2002      2002      2003      2004      2002      2003      2005
      2002      2003      2006      2003      2006      2007      2003      2006      2008
      2003      2006      2014      2004      2003      2005      2004      2003      2006
      2005      2003      2006      2006      2008      2009      2006      2014      2015
      2006      2014      2016      2006      2014      2017      2007      2006      2008
      2007      2006      2014      2008      2006      2014      2008      2009      2010
      2008      2009      2011      2009      2011      2012      2009      2011      2013
      2009      2011      2023      2010      2009      2011      2011      2023      2024
      2011      2023      2025      2011      2023      2026      2012      2011      2013
      2012      2011      2023      2013      2011      2023      2014      2017      2018
      2015      2014      2016      2015      2014      2017      2016      2014      2017
      2017      2018      2019      2017      2018      2020      2018      2020      2021
      2018      2020      2022      2018      2020      2070      2019      2018      2020
      2020      2070      2071      2020      2070      2072      2020      2070      2073
      2021      2020      2022      2021      2020      2070      2022      2020      2070
      2023      2026      2027      2023      2026      2028      2023      2026      2029
      2024      2023      2025      2024      2023      2026      2025      2023      2026
      2026      2029      2030      2026      2029      2031      2027      2026      2028
      2027      2026      2029      2028      2026      2029      2029      2031      2032
      2029      2031      2033      2030      2029      2031      2031      2033      2034
      2031      2033      2035      2031      2033      2036      2032      2031      2033
      2033      2036      2037      2033      2036      2038      2034      2033      2035
      2034      2033      2036      2035      2033      2036      2036      2038      2039
      2036      2038      2040      2037      2036      2038      2038      2040      2041
      2038      2040      2042      2038      2040      2043      2039      2038      2040
      2040      2043      2044      2040      2043      2045      2041      2040      2042
      2041      2040      2043      2042      2040      2043      2043      2045      2046
      2043      2045      2047      2044      2043      2045      2045      2047      2048
      2045      2047      2049      2045      2047      2050      2046      2045      2047
      2047      2050      2051      2047      2050      2052      2048      2047      2049
      2048      2047      2050      2049      2047      2050      2050      2052      2053
      2050      2052      2054      2051      2050      2052      2052      2054      2055
      2052      2054      2056      2052      2054      2057      2053      2052      2054
      2054      2057      2058      2054      2057      2059      2054      2057      2060
      2055      2054      2056      2055      2054      2057      2056      2054      2057
      2057      2060      2061      2057      2060      2062      2057      2060      2063
      2058      2057      2059      2058      2057      2060      2059      2057      2060
      2060      2063      2064      2060      2063      2065      2060      2063      2066
      2061      2060      2062      2061      2060      2063      2062      2060      2063
      2063      2066      2067      2063      2066      2068      2063      2066      2069
      2064      2063      2065      2064      2063      2066      2065      2063      2066
      2067      2066      2068      2067      2066      2069      2068      2066      2069
      2070      2073      2074      2070      2073      2075      2070      2073      2076
      2071      2070      2072      2071      2070      2073      2072      2070      2073
      2073      2076      2077      2073      2076      2078      2073      2076      2079
      2074      2073      2075      2074      2073      2076      2075      2073      2076
      2076      2079      2080      2076      2079      2081      2076      2079      2082
      2077      2076      2078      2077      2076      2079      2078      2076      2079
      2079      2082      2083      2079      2082      2084      2079      2082      2085
      2080      2079      2081      2080      2079      2082      2081      2079      2082
      2082      2085      2086      2082      2085      2087      2082      2085      2088
      2083      2082      2084      2083      2082      2085      2084      2082      2085
      2085      2088      2089      2085      2088      2090      2085      2088      2091
      2086      2085      2087      2086      2085      2088      2087      2085      2088
      2088      2091      2092      2088      2091      2093      2088      2091      2094
      2089      2088      2090      2089      2088      2091      2090      2088      2091
      2091      2094      2095      2091      2094      2096      2091      2094      2097
      2092      2091      2093      2092      2091      2094      2093      2091      2094
      2094      2097      2098      2094      2097      2099      2094      2097      2100
      2095      2094      2096      2095      2094      2097      2096      2094      2097
      2097      2100      2101      2097      2100      2102      2097      2100      2103
      2098      2097      2099      2098      2097      2100      2099      2097      2100
      2100      2103      2104      2100      2103      2105      2100      2103      2106
      2101      2100      2102      2101      2100      2103      2102      2100      2103
      2103      2106      2107      2103      2106      2108      2103      2106      2109
      2104      2103      2105      2104      2103      2106      2105      2103      2106
      2106      2109      2110      2106      2109      2111      2106      2109      2112
      2107      2106      2108      2107      2106      2109      2108      2106      2109
      2109      2112      2113      2109      2112      2114      2109      2112      2115
      2110      2109      2111      2110      2109      2112      2111      2109      2112
      2112      2115      2116      2112      2115      2117      2112      2115      2118
      2113      2112      2114      2113      2112      2115      2114      2112      2115
      2116      2115      2117      2116      2115      2118      2117      2115      2118
      2119      2121      2122      2119      2123      2124      2119      2123      2125
      2119      2123      2126      2119      2165      2162      2119      2165      2166
      2119      2165      2167      2120      2119      2121      2120      2119      2123
      2120      2119      2165      2121      2119      2123      2121      2119      2165
      2123      2119      2165      2123      2126      2127      2123      2126      2157
      2124      2123      2125      2124      2123      2126      2125      2123      2126
      2126      2127      2128      2126      2127      2129      2126      2157      2155
      2126      2157      2158      2126      2157      2162      2127      2126      2157
      2127      2129      2130      2127      2129      2131      2127      2129      2132
      2128      2127      2129      2129      2132      2133      2129      2132      2134
      2129      2132      2155      2130      2129      2131      2130      2129      2132
      2131      2129      2132      2132      2134      2135      2132      2134      2136
      2132      2134      2144      2132      2155      2152      2132      2155      2156
      2132      2155      2157      2133      2132      2134      2133      2132      2155
      2134      2132      2155      2134      2136      2137      2134      2136      2138
      2134      2136      2139      2134      2144      2142      2134      2144      2145
      2134      2144      2149      2135      2134      2136      2135      2134      2144
      2136      2134      2144      2136      2139      2140      2136      2139      2141
      2136      2139      2142      2137      2136      2138      2137      2136      2139
      2138      2136      2139      2139      2142      2143      2139      2142      2144
      2139      2142      2168      2140      2139      2141      2140      2139      2142
      2141      2139      2142      2142      2144      2145      2142      2144      2149
      2142      2168      2169      2142      2168      2170      2142      2168      2174
      2143      2142      2144      2143      2142      2168      2144      2142      2168
      2144      2145      2146      2144      2145      2147      2144      2145      2148
      2144      2149      2150      2144      2149      2151      2144      2149      2152
      2145      2144      2149      2146      2145      2147      2146      2145      2148
      2147      2145      2148      2149      2152      2153      2149      2152      2154
      2149      2152      2155      2150      2149      2151      2150      2149      2152
      2151      2149      2152      2152      2155      2156      2152      2155      2157
      2153      2152      2154      2153      2152      2155      2154      2152      2155
      2155      2157      2158      2155      2157      2162      2156      2155      2157
      2157      2158      2159      2157      2158      2160      2157      2158      2161
      2157      2162      2163      2157      2162      2164      2157      2162      2165
      2158      2157      2162      2159      2158      2160      2159      2158      2161
      2160      2158      2161      2162      2165      2166      2162      2165      2167
      2163      2162      2164      2163      2162      2165      2164      2162      2165
      2166      2165      2167      2168      2170      2171      2168      2170      2172
      2168      2170      2173      2168      2174      2175      2168      2174      2176
      2168      2174      2177      2169      2168      2170      2169      2168      2174
      2170      2168      2174      2171      2170      2172      2171      2170      2173
      2172      2170      2173      2174      2177      2178      2174      2177      2179
      2174      2177      2180      2175      2174      2176      2175      2174      2177
      2176      2174      2177      2177      2180      2181      2177      2180      2182
      2177      2180      2183      2178      2177      2179      2178      2177      2180
      2179      2177      2180      2180      2183      2184      2180      2183      2185
      2180      2183      2189      2181      2180      2182      2181      2180      2183
      2182      2180      2183      2183      2185      2186      2183      2185      2187
      2183      2185      2188      2183      2189      2190      2183      2189      2191
      2183      2189      2192      2184      2183      2185      2184      2183      2189
      2185      2183      2189      2186      2185      2187      2186      2185      2188
      2187      2185      2188      2190      2189      2191      2190      2189      2192
      2191      2189      2192      2193      2197      2198      2193      2197      2199
      2193      2197      2200      2194      2193      2195      2194      2193      2196
      2194      2193      2197      2195      2193      2196      2195      2193      2197
      2196      2193      2197      2197      2200      2201      2197      2200      2202
      2197      2200      2206      2198      2197      2199      2198      2197      2200
      2199      2197      2200      2200      2206      2203      2201      2200      2202
      2201      2200      2206      2202      2200      2206      2203      2207      2208
      2204      2203      2205      2204      2203      2206      2204      2203      2207
      2205      2203      2206      2205      2203      2207      2206      2203      2207
      2207      2208      2209      2207      2208      2210      2207      2208      2211
      2208      2211      2212      2208      2211      2213      2208      2211      2219
      2209      2208      2210      2209      2208      2211      2210      2208      2211
      2211      2213      2214      2211      2219      2220      2211      2219      2221
      2211      2219      2222      2212      2211      2213      2212      2211      2219
      2213      2211      2219      2213      2214      2215      2213      2214      2216
      2214      2216      2217      2214      2216      2218      2214      2216      2228
      2215      2214      2216      2216      2228      2229      2216      2228      2230
      2216      2228      2231      2217      2216      2218      2217      2216      2228
      2218      2216      2228      2219      2222      2223      2220      2219      2221
      2220      2219      2222      2221      2219      2222      2222      2223      2224
      2222      2223      2225      2223      2225      2226      2223      2225      2227
      2223      2225      2275      2224      2223      2225      2225      2275      2276
      2225      2275      2277      2225      2275      2278      2226      2225      2227
      2226      2225      2275      2227      2225      2275      2228      2231      2232
      2228      2231      2233      2228      2231      2234      2229      2228      2230
      2229      2228      2231      2230      2228      2231      2231      2234      2235
      2231      2234      2236      2231      2234      2237      2232      2231      2233
      2232      2231      2234      2233      2231      2234      2234      2237      2238
      2234      2237      2239      2234      2237      2240      2235      2234      2236
      2235      2234      2237      2236      2234      2237      2237      2240      2241
      2237      2240      2242      2237      2240      2243      2238      2237      2239
      2238      2237      2240      2239      2237      2240      2240      2243      2244
      2240      2243      2245      2240      2243      2246      2241      2240      2242
      2241      2240      2243      2242      2240      2243      2243      2246      2247
      2243      2246      2248      2244      2243      2245      2244      2243      2246
      2245      2243      2246      2246      2248      2249      2246      2248      2250
      2247      2246      2248      2248      2250      2251      2248      2250      2252
      2248      2250      2253      2249      2248      2250      2250      2253      2254
      2250      2253      2255      2250      2253      2256      2251      2250      2252
      2251      2250      2253      2252      2250      2253      2253      2256      2257
      2253      2256      2258      2253      2256      2259      2254      2253      2255
      2254      2253      2256      2255      2253      2256      2256      2259      2260
      2256      2259      2261      2256      2259      2262      2257      2256      2258
      2257      2256      2259      2258      2256      2259      2259      2262      2263
      2259      2262      2264      2259      2262      2265      2260      2259      2261
      2260      2259      2262      2261      2259      2262      2262      2265      2266
      2262      2265      2267      2262      2265      2268      2263      2262      2264
      2263      2262      2265      2264      2262      2265      2265      2268      2269
      2265      2268      2270      2265      2268      2271      2266      2265      2267
      2266      2265      2268      2267      2265      2268      2268      2271      2272
      2268      2271      2273      2268      2271      2274      2269      2268      2270
      2269      2268      2271      2270      2268      2271      2272      2271      2273
      2272      2271      2274      2273      2271      2274      2275      2278      2279
      2275      2278      2280      2275      2278      2281      2276      2275      2277
      2276      2275      2278      2277      2275      2278      2278      2281      2282
      2278      2281      2283      2278      2281      2284      2279      2278      2280
      2279      2278      2281      2280      2278      2281      2281      2284      2285
      2281      2284      2286      2281      2284      2287      2282      2281      2283
      2282      2281      2284      2283      2281      2284      2284      2287      2288
      2284      2287      2289      2284      2287      2290      2285      2284      2286
      2285      2284      2287      2286      2284      2287      2287      2290      2291
      2287      2290      2292      2287      2290      2293      2288      2287      2289
      2288      2287      2290      2289      2287      2290      2290      2293      2294
      2290      2293      2295      2290      2293      2296      2291      2290      2292
      2291      2290      2293      2292      2290      2293      2293      2296      2297
      2293      2296      2298      2293      2296      2299      2294      2293      2295
      2294      2293      2296      2295      2293      2296      2296      2299      2300
      2296      2299      2301      2296      2299      2302      2297      2296      2298
      2297      2296      2299      2298      2296      2299      2299      2302      2303
      2299      2302      2304      2299      2302      2305      2300      2299      2301
      2300      2299      2302      2301      2299      2302      2302      2305      2306
      2302      2305      2307      2302      2305      2308      2303      2302      2304
      2303      2302      2305      2304      2302      2305      2305      2308      2309
      2305      2308      2310      2305      2308      2311      2306      2305      2307
      2306      2305      2308      2307      2305      2308      2308      2311      2312
      2308      2311      2313      2308      2311      2314      2309      2308      2310
      2309      2308      2311      2310      2308      2311      2311      2314      2315
      2311      2314      2316      2311      2314      2317      2312      2311      2313
      2312      2311      2314      2313      2311      2314      2314      2317      2318
      2314      2317      2319      2314      2317      2320      2315      2314      2316
      2315      2314      2317      2316      2314      2317      2317      2320      2321
      2317      2320      2322      2317      2320      2323      2318      2317      2319
      2318      2317      2320      2319      2317      2320      2321      2320      2322
      2321      2320      2323      2322      2320      2323      2324      2328      2329
      2324      2328      2330      2324      2328      2331      2325      2324      2326
      2325      2324      2327      2325      2324      2328      2326      2324      2327
      2326      2324      2328      2327      2324      2328      2328      2331      2332
      2328      2331      2333      2328      2331      2337      2329      2328      2330
      2329      2328      2331      2330      2328      2331      2331      2337      2334
      2332      2331      2333      2332      2331      2337      2333      2331      2337
      2334      2338      2339      2335      2334      2336      2335      2334      2337
      2335      2334      2338      2336      2334      2337      2336      2334      2338
      2337      2334      2338      2338      2339      2340      2338      2339      2341
      2338      2339      2342      2339      2342      2343      2339      2342      2344
      2339      2342      2350      2340      2339      2341      2340      2339      2342
      2341      2339      2342      2342      2344      2345      2342      2350      2351
      2342      2350      2352      2342      2350      2353      2343      2342      2344
      2343      2342      2350      2344      2342      2350      2344      2345      2346
      2344      2345      2347      2345      2347      2348      2345      2347      2349
      2345      2347      2359      2346      2345      2347      2347      2359      2360
      2347      2359      2361      2347      2359      2362      2348      2347      2349
      2348      2347      2359      2349      2347      2359      2350      2353      2354
      2351      2350      2352      2351      2350      2353      2352      2350      2353
      2353      2354      2355      2353      2354      2356      2354      2356      2357
      2354      2356      2358      2354      2356      2406      2355      2354      2356
      2356      2406      2407      2356      2406      2408      2356      2406      2409
      2357      2356      2358      2357      2356      2406      2358      2356      2406
      2359      2362      2363      2359      2362      2364      2359      2362      2365
      2360      2359      2361      2360      2359      2362      2361      2359      2362
      2362      2365      2366      2362      2365      2367      2363      2362      2364
      2363      2362      2365      2364      2362      2365      2365      2367      2368
      2365      2367      2369      2366      2365      2367      2367      2369      2370
      2367      2369      2371      2367      2369      2372      2368      2367      2369
      2369      2372      2373      2369      2372      2374      2370      2369      2371
      2370      2369      2372      2371      2369      2372      2372      2374      2375
      2372      2374      2376      2373      2372      2374      2374      2376      2377
      2374      2376      2378      2374      2376      2379      2375      2374      2376
      2376      2379      2380      2376      2379      2381      2377      2376      2378
      2377      2376      2379      2378      2376      2379      2379      2381      2382
      2379      2381      2383      2380      2379      2381      2381      2383      2384
      2381      2383      2385      2381      2383      2386      2382      2381      2383
      2383      2386      2387      2383      2386      2388      2384      2383      2385
      2384      2383      2386      2385      2383      2386      2386      2388      2389
      2386      2388      2390      2387      2386      2388      2388      2390      2391
      2388      2390      2392      2388      2390      2393      2389      2388      2390
      2390      2393      2394      2390      2393      2395      2390      2393      2396
      2391      2390      2392      2391      2390      2393      2392      2390      2393
      2393      2396      2397      2393      2396      2398      2393      2396      2399
      2394      2393      2395      2394      2393      2396      2395      2393      2396
      2396      2399      2400      2396      2399      2401      2396      2399      2402
      2397      2396      2398      2397      2396      2399      2398      2396      2399
      2399      2402      2403      2399      2402      2404      2399      2402      2405
      2400      2399      2401      2400      2399      2402      2401      2399      2402
      2403      2402      2404      2403      2402      2405      2404      2402      2405
      2406      2409      2410      2406      2409      2411      2406      2409      2412
      2407      2406      2408      2407      2406      2409      2408      2406      2409
      2409      2412      2413      2409      2412      2414      2409      2412      2415
      2410      2409      2411      2410      2409      2412      2411      2409      2412
      2412      2415      2416      2412      2415      2417      2412      2415      2418
      2413      2412      2414      2413      2412      2415      2414      2412      2415
      2415      2418      2419      2415      2418      2420      2415      2418      2421
      2416      2415      2417      2416      2415      2418      2417      2415      2418
      2418      2421      2422      2418      2421      2423      2418      2421      2424
      2419      2418      2420      2419      2418      2421      2420      2418      2421
      2421      2424      2425      2421      2424      2426      2421      2424      2427
      2422      2421      2423      2422      2421      2424      2423      2421      2424
      2424      2427      2428      2424      2427      2429      2424      2427      2430
      2425      2424      2426      2425      2424      2427      2426      2424      2427
      2427      2430      2431      2427      2430      2432      2427      2430      2433
      2428      2427      2429      2428      2427      2430      2429      2427      2430
      2430      2433      2434      2430      2433      2435      2430      2433      2436
      2431      2430      2432      2431      2430      2433      2432      2430      2433
      2433      2436      2437      2433      2436      2438      2433      2436      2439
      2434      2433      2435      2434      2433      2436      2435      2433      2436
      2436      2439      2440      2436      2439      2441      2436      2439      2442
      2437      2436      2438      2437      2436      2439      2438      2436      2439
      2439      2442      2443      2439      2442      2444      2439      2442      2445
      2440      2439      2441      2440      2439      2442      2441      2439      2442
      2442      2445      2446      2442      2445      2447      2442      2445      2448
      2443      2442      2444      2443      2442      2445      2444      2442      2445
      2445      2448      2449      2445      2448      2450      2445      2448      2451
      2446      2445      2447      2446      2445      2448      2447      2445      2448
      2448      2451      2452      2448      2451      2453      2448      2451      2454
      2449      2448      2450      2449      2448      2451      2450      2448      2451
      2452      2451      2453      2452      2451      2454      2453      2451      2454
      2455      2459      2460      2455      2459      2461      2455      2459      2464
      2456      2455      2457      2456      2455      2458      2456      2455      2459
      2457      2455      2458      2457      2455      2459      2458      2455      2459
      2459      2461      2462      2459      2461      2463      2459      2464      2465
      2459      2464      2466      2459      2464      2470      2460      2459      2461
      2460      2459      2464      2461      2459      2464      2462      2461      2463
      2464      2470      2467      2465      2464      2466      2465      2464      2470
      2466      2464      2470      2467      2471      2472      2468      2467      2469
      2468      2467      2470      2468      2467      2471      2469      2467      2470
      2469      2467      2471      2470      2467      2471      2471      2472      2473
      2471      2472      2474      2471      2472      2475      2472      2475      2476
      2472      2475      2477      2472      2475      2483      2473      2472      2474
      2473      2472      2475      2474      2472      2475      2475      2477      2478
      2475      2483      2484      2475      2483      2485      2475      2483      2486
      2476      2475      2477      2476      2475      2483      2477      2475      2483
      2477      2478      2479      2477      2478      2480      2478      2480      2481
      2478      2480      2482      2478      2480      2492      2479      2478      2480
      2480      2492      2493      2480      2492      2494      2480      2492      2495
      2481      2480      2482      2481      2480      2492      2482      2480      2492
      2483      2486      2487      2484      2483      2485      2484      2483      2486
      2485      2483      2486      2486      2487      2488      2486      2487      2489
      2487      2489      2490      2487      2489      2491      2487      2489      2539
      2488      2487      2489      2489      2539      2540      2489      2539      2541
      2489      2539      2542      2490      2489      2491      2490      2489      2539
      2491      2489      2539      2492      2495      2496      2492      2495      2497
      2492      2495      2498      2493      2492      2494      2493      2492      2495
      2494      2492      2495      2495      2498      2499      2495      2498      2500
      2496      2495      2497      2496      2495      2498      2497      2495      2498
      2498      2500      2501      2498      2500      2502      2499      2498      2500
      2500      2502      2503      2500      2502      2504      2500      2502      2505
      2501      2500      2502      2502      2505      2506      2502      2505      2507
      2503      2502      2504      2503      2502      2505      2504      2502      2505
      2505      2507      2508      2505      2507      2509      2506      2505      2507
      2507      2509      2510      2507      2509      2511      2507      2509      2512
      2508      2507      2509      2509      2512      2513      2509      2512      2514
      2510      2509      2511      2510      2509      2512      2511      2509      2512
      2512      2514      2515      2512      2514      2516      2513      2512      2514
      2514      2516      2517      2514      2516      2518      2514      2516      2519
      2515      2514      2516      2516      2519      2520      2516      2519      2521
      2517      2516      2518      2517      2516      2519      2518      2516      2519
      2519      2521      2522      2519      2521      2523      2520      2519      2521
      2521      2523      2524      2521      2523      2525      2521      2523      2526
      2522      2521      2523      2523      2526      2527      2523      2526      2528
      2523      2526      2529      2524      2523      2525      2524      2523      2526
      2525      2523      2526      2526      2529      2530      2526      2529      2531
      2526      2529      2532      2527      2526      2528      2527      2526      2529
      2528      2526      2529      2529      2532      2533      2529      2532      2534
      2529      2532      2535      2530      2529      2531      2530      2529      2532
      2531      2529      2532      2532      2535      2536      2532      2535      2537
      2532      2535      2538      2533      2532      2534      2533      2532      2535
      2534      2532      2535      2536      2535      2537      2536      2535      2538
      2537      2535      2538      2539      2542      2543      2539      2542      2544
      2539      2542      2545      2540      2539      2541      2540      2539      2542
      2541      2539      2542      2542      2545      2546      2542      2545      2547
      2542      2545      2548      2543      2542      2544      2543      2542      2545
      2544      2542      2545      2545      2548      2549      2545      2548      2550
      2545      2548      2551      2546      2545      2547      2546      2545      2548
      2547      2545      2548      2548      2551      2552      2548      2551      2553
      2548      2551      2554      2549      2548      2550      2549      2548      2551
      2550      2548      2551      2551      2554      2555      2551      2554      2556
      2551      2554      2557      2552      2551      2553      2552      2551      2554
      2553      2551      2554      2554      2557      2558      2554      2557      2559
      2554      2557      2560      2555      2554      2556      2555      2554      2557
      2556      2554      2557      2557      2560      2561      2557      2560      2562
      2557      2560      2563      2558      2557      2559      2558      2557      2560
      2559      2557      2560      2560      2563      2564      2560      2563      2565
      2560      2563      2566      2561      2560      2562      2561      2560      2563
      2562      2560      2563      2563      2566      2567      2563      2566      2568
      2563      2566      2569      2564      2563      2565      2564      2563      2566
      2565      2563      2566      2566      2569      2570      2566      2569      2571
      2566      2569      2572      2567      2566      2568      2567      2566      2569
      2568      2566      2569      2569      2572      2573      2569      2572      2574
      2569      2572      2575      2570      2569      2571      2570      2569      2572
      2571      2569      2572      2572      2575      2576      2572      2575      2577
      2572      2575      2578      2573      2572      2574      2573      2572      2575
      2574      2572      2575      2575      2578      2579      2575      2578      2580
      2575      2578      2581      2576      2575      2577      2576      2575      2578
      2577      2575      2578      2578      2581      2582      2578      2581      2583
      2578      2581      2584      2579      2578      2580      2579      2578      2581
      2580      2578      2581      2581      2584      2585      2581      2584      2586
      2581      2584      2587      2582      2581      2583      2582      2581      2584
      2583      2581      2584      2585      2584      2586      2585      2584      2587
      2586      2584      2587      2588      2592      2593      2588      2592      2594
      2588      2592      2597      2589      2588      2590      2589      2588      2591
      2589      2588      2592      2590      2588      2591      2590      2588      2592
      2591      2588      2592      2592      2594      2595      2592      2594      2596
      2592      2597      2598      2592      2597      2599      2592      2597      2603
      2593      2592      2594      2593      2592      2597      2594      2592      2597
      2595      2594      2596      2597      2603      2600      2598      2597      2599
      2598      2597      2603      2599      2597      2603      2600      2604      2605
      2601      2600      2602      2601      2600      2603      2601      2600      2604
      2602      2600      2603      2602      2600      2604      2603      2600      2604
      2604      2605      2606      2604      2605      2607      2604      2605      2608
      2605      2608      2609      2605      2608      2610      2605      2608      2616
      2606      2605      2607      2606      2605      2608      2607      2605      2608
      2608      2610      2611      2608      2616      2617      2608      2616      2618
      2608      2616      2619      2609      2608      2610      2609      2608      2616
      2610      2608      2616      2610      2611      2612      2610      2611      2613
      2611      2613      2614      2611      2613      2615      2611      2613      2625
      2612      2611      2613      2613      2625      2626      2613      2625      2627
      2613      2625      2628      2614      2613      2615      2614      2613      2625
      2615      2613      2625      2616      2619      2620      2617      2616      2618
      2617      2616      2619      2618      2616      2619      2619      2620      2621
      2619      2620      2622      2620      2622      2623      2620      2622      2624
      2620      2622      2672      2621      2620      2622      2622      2672      2673
      2622      2672      2674      2622      2672      2675      2623      2622      2624
      2623      2622      2672      2624      2622      2672      2625      2628      2629
      2625      2628      2630      2625      2628      2631      2626      2625      2627
      2626      2625      2628      2627      2625      2628      2628      2631      2632
      2628      2631      2633      2629      2628      2630      2629      2628      2631
      2630      2628      2631      2631      2633      2634      2631      2633      2635
      2632      2631      2633      2633      2635      2636      2633      2635      2637
      2633      2635      2638      2634      2633      2635      2635      2638      2639
      2635      2638      2640      2636      2635      2637      2636      2635      2638
      2637      2635      2638      2638      2640      2641      2638      2640      2642
      2639      2638      2640      2640      2642      2643      2640      2642      2644
      2640      2642      2645      2641      2640      2642      2642      2645      2646
      2642      2645      2647      2643      2642      2644      2643      2642      2645
      2644      2642      2645      2645      2647      2648      2645      2647      2649
      2646      2645      2647      2647      2649      2650      2647      2649      2651
      2647      2649      2652      2648      2647      2649      2649      2652      2653
      2649      2652      2654      2650      2649      2651      2650      2649      2652
      2651      2649      2652      2652      2654      2655      2652      2654      2656
      2653      2652      2654      2654      2656      2657      2654      2656      2658
      2654      2656      2659      2655      2654      2656      2656      2659      2660
      2656      2659      2661      2656      2659      2662      2657      2656      2658
      2657      2656      2659      2658      2656      2659      2659      2662      2663
      2659      2662      2664      2659      2662      2665      2660      2659      2661
      2660      2659      2662      2661      2659      2662      2662      2665      2666
      2662      2665      2667      2662      2665      2668      2663      2662      2664
      2663      2662      2665      2664      2662      2665      2665      2668      2669
      2665      2668      2670      2665      2668      2671      2666      2665      2667
      2666      2665      2668      2667      2665      2668      2669      2668      2670
      2669      2668      2671      2670      2668      2671      2672      2675      2676
      2672      2675      2677      2672      2675      2678      2673      2672      2674
      2673      2672      2675      2674      2672      2675      2675      2678      2679
      2675      2678      2680      2675      2678      2681      2676      2675      2677
      2676      2675      2678      2677      2675      2678      2678      2681      2682
      2678      2681      2683      2678      2681      2684      2679      2678      2680
      2679      2678      2681      2680      2678      2681      2681      2684      2685
      2681      2684      2686      2681      2684      2687      2682      2681      2683
      2682      2681      2684      2683      2681      2684      2684      2687      2688
      2684      2687      2689      2684      2687      2690      2685      2684      2686
      2685      2684      2687      2686      2684      2687      2687      2690      2691
      2687      2690      2692      2687      2690      2693      2688      2687      2689
      2688      2687      2690      2689      2687      2690      2690      2693      2694
      2690      2693      2695      2690      2693      2696      2691      2690      2692
      2691      2690      2693      2692      2690      2693      2693      2696      2697
      2693      2696      2698      2693      2696      2699      2694      2693      2695
      2694      2693      2696      2695      2693      2696      2696      2699      2700
      2696      2699      2701      2696      2699      2702      2697      2696      2698
      2697      2696      2699      2698      2696      2699      2699      2702      2703
      2699      2702      2704      2699      2702      2705      2700      2699      2701
      2700      2699      2702      2701      2699      2702      2702      2705      2706
      2702      2705      2707      2702      2705      2708      2703      2702      2704
      2703      2702      2705      2704      2702      2705      2705      2708      2709
      2705      2708      2710      2705      2708      2711      2706      2705      2707
      2706      2705      2708      2707      2705      2708      2708      2711      2712
      2708      2711      2713      2708      2711      2714      2709      2708      2710
      2709      2708      2711      2710      2708      2711      2711      2714      2715
      2711      2714      2716      2711      2714      2717      2712      2711      2713
      2712      2711      2714      2713      2711      2714      2714      2717      2718
      2714      2717      2719      2714      2717      2720      2715      2714      2716
      2715      2714      2717      2716      2714      2717      2718      2717      2719
      2718      2717      2720      2719      2717      2720      2721      2725      2726
      2721      2725      2727      2721      2725      2730      2722      2721      2723
      2722      2721      2724      2722      2721      2725      2723      2721      2724
      2723      2721      2725      2724      2721      2725      2725      2727      2728
      2725      2727      2729      2725      2730      2731      2725      2730      2732
      2725      2730      2736      2726      2725      2727      2726      2725      2730
      2727      2725      2730      2728      2727      2729      2730      2736      2733
      2731      2730      2732      2731      2730      2736      2732      2730      2736
      2733      2737      2738      2734      2733      2735      2734      2733      2736
      2734      2733      2737      2735      2733      2736      2735      2733      2737
      2736      2733      2737      2737      2738      2739      2737      2738      2740
      2737      2738      2741      2738      2741      2742      2738      2741      2743
      2738      2741      2749      2739      2738      2740      2739      2738      2741
      2740      2738      2741      2741      2743      2744      2741      2749      2750
      2741      2749      2751      2741      2749      2752      2742      2741      2743
      2742      2741      2749      2743      2741      2749      2743      2744      2745
      2743      2744      2746      2744      2746      2747      2744      2746      2748
      2744      2746      2758      2745      2744      2746      2746      2758      2759
      2746      2758      2760      2746      2758      2761      2747      2746      2748
      2747      2746      2758      2748      2746      2758      2749      2752      2753
      2750      2749      2751      2750      2749      2752      2751      2749      2752
      2752      2753      2754      2752      2753      2755      2753      2755      2756
      2753      2755      2757      2753      2755      2805      2754      2753      2755
      2755      2805      2806      2755      2805      2807      2755      2805      2808
      2756      2755      2757      2756      2755      2805      2757      2755      2805
      2758      2761      2762      2758      2761      2763      2758      2761      2764
      2759      2758      2760      2759      2758      2761      2760      2758      2761
      2761      2764      2765      2761      2764      2766      2762      2761      2763
      2762      2761      2764      2763      2761      2764      2764      2766      2767
      2764      2766      2768      2765      2764      2766      2766      2768      2769
      2766      2768      2770      2766      2768      2771      2767      2766      2768
      2768      2771      2772      2768      2771      2773      2769      2768      2770
      2769      2768      2771      2770      2768      2771      2771      2773      2774
      2771      2773      2775      2772      2771      2773      2773      2775      2776
      2773      2775      2777      2773      2775      2778      2774      2773      2775
      2775      2778      2779      2775      2778      2780      2776      2775      2777
      2776      2775      2778      2777      2775      2778      2778      2780      2781
      2778      2780      2782      2779      2778      2780      2780      2782      2783
      2780      2782      2784      2780      2782      2785      2781      2780      2782
      2782      2785      2786      2782      2785      2787      2783      2782      2784
      2783      2782      2785      2784      2782      2785      2785      2787      2788
      2785      2787      2789      2786      2785      2787      2787      2789      2790
      2787      2789      2791      2787      2789      2792      2788      2787      2789
      2789      2792      2793      2789      2792      2794      2789      2792      2795
      2790      2789      2791      2790      2789      2792      2791      2789      2792
      2792      2795      2796      2792      2795      2797      2792      2795      2798
      2793      2792      2794      2793      2792      2795      2794      2792      2795
      2795      2798      2799      2795      2798      2800      2795      2798      2801
      2796      2795      2797      2796      2795      2798      2797      2795      2798
      2798      2801      2802      2798      2801      2803      2798      2801      2804
      2799      2798      2800      2799      2798      2801      2800      2798      2801
      2802      2801      2803      2802      2801      2804      2803      2801      2804
      2805      2808      2809      2805      2808      2810      2805      2808      2811
      2806      2805      2807      2806      2805      2808      2807      2805      2808
      2808      2811      2812      2808      2811      2813      2808      2811      2814
      2809      2808      2810      2809      2808      2811      2810      2808      2811
      2811      2814      2815      2811      2814      2816      2811      2814      2817
      2812      2811      2813      2812      2811      2814      2813      2811      2814
      2814      2817      2818      2814      2817      2819      2814      2817      2820
      2815      2814      2816      2815      2814      2817      2816      2814      2817
      2817      2820      2821      2817      2820      2822      2817      2820      2823
      2818      2817      2819      2818      2817      2820      2819      2817      2820
      2820      2823      2824      2820      2823      2825      2820      2823      2826
      2821      2820      2822      2821      2820      2823      2822      2820      2823
      2823      2826      2827      2823      2826      2828      2823      2826      2829
      2824      2823      2825      2824      2823      2826      2825      2823      2826
      2826      2829      2830      2826      2829      2831      2826      2829      2832
      2827      2826      2828      2827      2826      2829      2828      2826      2829
      2829      2832      2833      2829      2832      2834      2829      2832      2835
      2830      2829      2831      2830      2829      2832      2831      2829      2832
      2832      2835      2836      2832      2835      2837      2832      2835      2838
      2833      2832      2834      2833      2832      2835      2834      2832      2835
      2835      2838      2839      2835      2838      2840      2835      2838      2841
      2836      2835      2837      2836      2835      2838      2837      2835      2838
      2838      2841      2842      2838      2841      2843      2838      2841      2844
      2839      2838      2840      2839      2838      2841      2840      2838      2841
      2841      2844      2845      2841      2844      2846      2841      2844      2847
      2842      2841      2843      2842      2841      2844      2843      2841      2844
      2844      2847      2848      2844      2847      2849      2844      2847      2850
      2845      2844      2846      2845      2844      2847      2846      2844      2847
      2847      2850      2851      2847      2850      2852      2847      2850      2853
      2848      2847      2849      2848      2847      2850      2849      2847      2850
      2851      2850      2852      2851      2850      2853      2852      2850      2853
      2854      2858      2859      2854      2858      2860      2854      2858      2861
      2855      2854      2856      2855      2854      2857      2855      2854      2858
      2856      2854      2857      2856      2854      2858      2857      2854      2858
      2858      2861      2862      2858      2861      2863      2858      2861      2867
      2859      2858      2860      2859      2858      2861      2860      2858      2861
      2861      2867      2864      2862      2861      2863      2862      2861      2867
      2863      2861      2867      2864      2868      2869      2865      2864      2866
      2865      2864      2867      2865      2864      2868      2866      2864      2867
      2866      2864      2868      2867      2864      2868      2868      2869      2870
      2868      2869      2871      2868      2869      2872      2869      2872      2873
      2869      2872      2874      2869      2872      2880      2870      2869      2871
      2870      2869      2872      2871      2869      2872      2872      2874      2875
      2872      2880      2881      2872      2880      2882      2872      2880      2883
      2873      2872      2874      2873      2872      2880      2874      2872      2880
      2874      2875      2876      2874      2875      2877      2875      2877      2878
      2875      2877      2879      2875      2877      2889      2876      2875      2877
      2877      2889      2890      2877      2889      2891      2877      2889      2892
      2878      2877      2879      2878      2877      2889      2879      2877      2889
      2880      2883      2884      2881      2880      2882      2881      2880      2883
      2882      2880      2883      2883      2884      2885      2883      2884      2886
      2884      2886      2887      2884      2886      2888      2884      2886      2936
      2885      2884      2886      2886      2936      2937      2886      2936      2938
      2886      2936      2939      2887      2886      2888      2887      2886      2936
      2888      2886      2936      2889      2892      2893      2889      2892      2894
      2889      2892      2895      2890      2889      2891      2890      2889      2892
      2891      2889      2892      2892      2895      2896      2892      2895      2897
      2893      2892      2894      2893      2892      2895      2894      2892      2895
      2895      2897      2898      2895      2897      2899      2896      2895      2897
      2897      2899      2900      2897      2899      2901      2897      2899      2902
      2898      2897      2899      2899      2902      2903      2899      2902      2904
      2900      2899      2901      2900      2899      2902      2901      2899      2902
      2902      2904      2905      2902      2904      2906      2903      2902      2904
      2904      2906      2907      2904      2906      2908      2904      2906      2909
      2905      2904      2906      2906      2909      2910      2906      2909      2911
      2907      2906      2908      2907      2906      2909      2908      2906      2909
      2909      2911      2912      2909      2911      2913      2910      2909      2911
      2911      2913      2914      2911      2913      2915      2911      2913      2916
      2912      2911      2913      2913      2916      2917      2913      2916      2918
      2914      2913      2915      2914      2913      2916      2915      2913      2916
      2916      2918      2919      2916      2918      2920      2917      2916      2918
      2918      2920      2921      2918      2920      2922      2918      2920      2923
      2919      2918      2920      2920      2923      2924      2920      2923      2925
      2920      2923      2926      2921      2920      2922      2921      2920      2923
      2922      2920      2923      2923      2926      2927      2923      2926      2928
      2923      2926      2929      2924      2923      2925      2924      2923      2926
      2925      2923      2926      2926      2929      2930      2926      2929      2931
      2926      2929      2932      2927      2926      2928      2927      2926      2929
      2928      2926      2929      2929      2932      2933      2929      2932      2934
      2929      2932      2935      2930      2929      2931      2930      2929      2932
      2931      2929      2932      2933      2932      2934      2933      2932      2935
      2934      2932      2935      2936      2939      2940      2936      2939      2941
      2936      2939      2942      2937      2936      2938      2937      2936      2939
      2938      2936      2939      2939      2942      2943      2939      2942      2944
      2939      2942      2945      2940      2939      2941      2940      2939      2942
      2941      2939      2942      2942      2945      2946      2942      2945      2947
      2942      2945      2948      2943      2942      2944      2943      2942      2945
      2944      2942      2945      2945      2948      2949      2945      2948      2950
      2945      2948      2951      2946      2945      2947      2946      2945      2948
      2947      2945      2948      2948      2951      2952      2948      2951      2953
      2948      2951      2954      2949      2948      2950      2949      2948      2951
      2950      2948      2951      2951      2954      2955      2951      2954      2956
      2951      2954      2957      2952      2951      2953      2952      2951      2954
      2953      2951      2954      2954      2957      2958      2954      2957      2959
      2954      2957      2960      2955      2954      2956      2955      2954      2957
      2956      2954      2957      2957      2960      2961      2957      2960      2962
      2957      2960      2963      2958      2957      2959      2958      2957      2960
      2959      2957      2960      2960      2963      2964      2960      2963      2965
      2960      2963      2966      2961      2960      2962      2961      2960      2963
      2962      2960      2963      2963      2966      2967      2963      2966      2968
      2963      2966      2969      2964      2963      2965      2964      2963      2966
      2965      2963      2966      2966      2969      2970      2966      2969      2971
      2966      2969      2972      2967      2966      2968      2967      2966      2969
      2968      2966      2969      2969      2972      2973      2969      2972      2974
      2969      2972      2975      2970      2969      2971      2970      2969      2972
      2971      2969      2972      2972      2975      2976      2972      2975      2977
      2972      2975      2978      2973      2972      2974      2973      2972      2975
      2974      2972      2975      2975      2978      2979      2975      2978      2980
      2975      2978      2981      2976      2975      2977      2976      2975      2978
      2977      2975      2978      2978      2981      2982      2978      2981      2983
      2978      2981      2984      2979      2978      2980      2979      2978      2981
      2980      2978      2981      2982      2981      2983      2982      2981      2984
      2983      2981      2984      2985      2989      2990      2985      2989      2991
      2985      2989      2992      2986      2985      2987      2986      2985      2988
      2986      2985      2989      2987      2985      2988      2987      2985      2989
      2988      2985      2989      2989      2992      2993      2989      2992      2994
      2989      2992      2998      2990      2989      2991      2990      2989      2992
      2991      2989      2992      2992      2998      2995      2993      2992      2994
      2993      2992      2998      2994      2992      2998      2995      2999      3000
      2996      2995      2997      2996      2995      2998      2996      2995      2999
      2997      2995      2998      2997      2995      2999      2998      2995      2999
      2999      3000      3001      2999      3000      3002      2999      3000      3003
      3000      3003      3004      3000      3003      3005      3000      3003      3011
      3001      3000      3002      3001      3000      3003      3002      3000      3003
      3003      3005      3006      3003      3011      3012      3003      3011      3013
      3003      3011      3014      3004      3003      3005      3004      3003      3011
      3005      3003      3011      3005      3006      3007      3005      3006      3008
      3006      3008      3009      3006      3008      3010      3006      3008      3020
      3007      3006      3008      3008      3020      3021      3008      3020      3022
      3008      3020      3023      3009      3008      3010      3009      3008      3020
      3010      3008      3020      3011      3014      3015      3012      3011      3013
      3012      3011      3014      3013      3011      3014      3014      3015      3016
      3014      3015      3017      3015      3017      3018      3015      3017      3019
      3015      3017      3067      3016      3015      3017      3017      3067      3068
      3017      3067      3069      3017      3067      3070      3018      3017      3019
      3018      3017      3067      3019      3017      3067      3020      3023      3024
      3020      3023      3025      3020      3023      3026      3021      3020      3022
      3021      3020      3023      3022      3020      3023      3023      3026      3027
      3023      3026      3028      3024      3023      3025      3024      3023      3026
      3025      3023      3026      3026      3028      3029      3026      3028      3030
      3027      3026      3028      3028      3030      3031      3028      3030      3032
      3028      3030      3033      3029      3028      3030      3030      3033      3034
      3030      3033      3035      3031      3030      3032      3031      3030      3033
      3032      3030      3033      3033      3035      3036      3033      3035      3037
      3034      3033      3035      3035      3037      3038      3035      3037      3039
      3035      3037      3040      3036      3035      3037      3037      3040      3041
      3037      3040      3042      3038      3037      3039      3038      3037      3040
      3039      3037      3040      3040      3042      3043      3040      3042      3044
      3041      3040      3042      3042      3044      3045      3042      3044      3046
      3042      3044      3047      3043      3042      3044      3044      3047      3048
      3044      3047      3049      3045      3044      3046      3045      3044      3047
      3046      3044      3047      3047      3049      3050      3047      3049      3051
      3048      3047      3049      3049      3051      3052      3049      3051      3053
      3049      3051      3054      3050      3049      3051      3051      3054      3055
      3051      3054      3056      3051      3054      3057      3052      3051      3053
      3052      3051      3054      3053      3051      3054      3054      3057      3058
      3054      3057      3059      3054      3057      3060      3055      3054      3056
      3055      3054      3057      3056      3054      3057      3057      3060      3061
      3057      3060      3062      3057      3060      3063      3058      3057      3059
      3058      3057      3060      3059      3057      3060      3060      3063      3064
      3060      3063      3065      3060      3063      3066      3061      3060      3062
      3061      3060      3063      3062      3060      3063      3064      3063      3065
      3064      3063      3066      3065      3063      3066      3067      3070      3071
      3067      3070      3072      3067      3070      3073      3068      3067      3069
      3068      3067      3070      3069      3067      3070      3070      3073      3074
      3070      3073      3075      3070      3073      3076      3071      3070      3072
      3071      3070      3073      3072      3070      3073      3073      3076      3077
      3073      3076      3078      3073      3076      3079      3074      3073      3075
      3074      3073      3076      3075      3073      3076      3076      3079      3080
      3076      3079      3081      3076      3079      3082      3077      3076      3078
      3077      3076      3079      3078      3076      3079      3079      3082      3083
      3079      3082      3084      3079      3082      3085      3080      3079      3081
      3080      3079      3082      3081      3079      3082      3082      3085      3086
      3082      3085      3087      3082      3085      3088      3083      3082      3084
      3083      3082      3085      3084      3082      3085      3085      3088      3089
      3085      3088      3090      3085      3088      3091      3086      3085      3087
      3086      3085      3088      3087      3085      3088      3088      3091      3092
      3088      3091      3093      3088      3091      3094      3089      3088      3090
      3089      3088      3091      3090      3088      3091      3091      3094      3095
      3091      3094      3096      3091      3094      3097      3092      3091      3093
      3092      3091      3094      3093      3091      3094      3094      3097      3098
      3094      3097      3099      3094      3097      3100      3095      3094      3096
      3095      3094      3097      3096      3094      3097      3097      3100      3101
      3097      3100      3102      3097      3100      3103      3098      3097      3099
      3098      3097      3100      3099      3097      3100      3100      3103      3104
      3100      3103      3105      3100      3103      3106      3101      3100      3102
      3101      3100      3103      3102      3100      3103      3103      3106      3107
      3103      3106      3108      3103      3106      3109      3104      3103      3105
      3104      3103      3106      3105      3103      3106      3106      3109      3110
      3106      3109      3111      3106      3109      3112      3107      3106      3108
      3107      3106      3109      3108      3106      3109      3109      3112      3113
      3109      3112      3114      3109      3112      3115      3110      3109      3111
      3110      3109      3112      3111      3109      3112      3113      3112      3114
      3113      3112      3115      3114      3112      3115      3116      3120      3121
      3116      3120      3122      3116      3120      3123      3117      3116      3118
      3117      3116      3119      3117      3116      3120      3118      3116      3119
      3118      3116      3120      3119      3116      3120      3120      3123      3124
      3120      3123      3125      3120      3123      3129      3121      3120      3122
      3121      3120      3123      3122      3120      3123      3123      3129      3126
      3124      3123      3125      3124      3123      3129      3125      3123      3129
      3126      3130      3131      3127      3126      3128      3127      3126      3129
      3127      3126      3130      3128      3126      3129      3128      3126      3130
      3129      3126      3130      3130      3131      3132      3130      3131      3133
      3130      3131      3134      3131      3134      3135      3131      3134      3136
      3131      3134      3142      3132      3131      3133      3132      3131      3134
      3133      3131      3134      3134      3136      3137      3134      3142      3143
      3134      3142      3144      3134      3142      3145      3135      3134      3136
      3135      3134      3142      3136      3134      3142      3136      3137      3138
      3136      3137      3139      3137      3139      3140      3137      3139      3141
      3137      3139      3151      3138      3137      3139      3139      3151      3152
      3139      3151      3153      3139      3151      3154      3140      3139      3141
      3140      3139      3151      3141      3139      3151      3142      3145      3146
      3143      3142      3144      3143      3142      3145      3144      3142      3145
      3145      3146      3147      3145      3146      3148      3146      3148      3149
      3146      3148      3150      3146      3148      3198      3147      3146      3148
      3148      3198      3199      3148      3198      3200      3148      3198      3201
      3149      3148      3150      3149      3148      3198      3150      3148      3198
      3151      3154      3155      3151      3154      3156      3151      3154      3157
      3152      3151      3153      3152      3151      3154      3153      3151      3154
      3154      3157      3158      3154      3157      3159      3155      3154      3156
      3155      3154      3157      3156      3154      3157      3157      3159      3160
      3157      3159      3161      3158      3157      3159      3159      3161      3162
      3159      3161      3163      3159      3161      3164      3160      3159      3161
      3161      3164      3165      3161      3164      3166      3162      3161      3163
      3162      3161      3164      3163      3161      3164      3164      3166      3167
      3164      3166      3168      3165      3164      3166      3166      3168      3169
      3166      3168      3170      3166      3168      3171      3167      3166      3168
      3168      3171      3172      3168      3171      3173      3169      3168      3170
      3169      3168      3171      3170      3168      3171      3171      3173      3174
      3171      3173      3175      3172      3171      3173      3173      3175      3176
      3173      3175      3177      3173      3175      3178      3174      3173      3175
      3175      3178      3179      3175      3178      3180      3176      3175      3177
      3176      3175      3178      3177      3175      3178      3178      3180      3181
      3178      3180      3182      3179      3178      3180      3180      3182      3183
      3180      3182      3184      3180      3182      3185      3181      3180      3182
      3182      3185      3186      3182      3185      3187      3182      3185      3188
      3183      3182      3184      3183      3182      3185      3184      3182      3185
      3185      3188      3189      3185      3188      3190      3185      3188      3191
      3186      3185      3187      3186      3185      3188      3187      3185      3188
      3188      3191      3192      3188      3191      3193      3188      3191      3194
      3189      3188      3190      3189      3188      3191      3190      3188      3191
      3191      3194      3195      3191      3194      3196      3191      3194      3197
      3192      3191      3193      3192      3191      3194      3193      3191      3194
      3195      3194      3196      3195      3194      3197      3196      3194      3197
      3198      3201      3202      3198      3201      3203      3198      3201      3204
      3199      3198      3200      3199      3198      3201      3200      3198      3201
      3201      3204      3205      3201      3204      3206      3201      3204      3207
      3202      3201      3203      3202      3201      3204      3203      3201      3204
      3204      3207      3208      3204      3207      3209      3204      3207      3210
      3205      3204      3206      3205      3204      3207      3206      3204      3207
      3207      3210      3211      3207      3210      3212      3207      3210      3213
      3208      3207      3209      3208      3207      3210      3209      3207      3210
      3210      3213      3214      3210      3213      3215      3210      3213      3216
      3211      3210      3212      3211      3210      3213      3212      3210      3213
      3213      3216      3217      3213      3216      3218      3213      3216      3219
      3214      3213      3215      3214      3213      3216      3215      3213      3216
      3216      3219      3220      3216      3219      3221      3216      3219      3222
      3217      3216      3218      3217      3216      3219      3218      3216      3219
      3219      3222      3223      3219      3222      3224      3219      3222      3225
      3220      3219      3221      3220      3219      3222      3221      3219      3222
      3222      3225      3226      3222      3225      3227      3222      3225      3228
      3223      3222      3224      3223      3222      3225      3224      3222      3225
      3225      3228      3229      3225      3228      3230      3225      3228      3231
      3226      3225      3227      3226      3225      3228      3227      3225      3228
      3228      3231      3232      3228      3231      3233      3228      3231      3234
      3229      3228      3230      3229      3228      3231      3230      3228      3231
      3231      3234      3235      3231      3234      3236      3231      3234      3237
      3232      3231      3233      3232      3231      3234      3233      3231      3234
      3234      3237      3238      3234      3237      3239      3234      3237      3240
      3235      3234      3236      3235      3234      3237      3236      3234      3237
      3237      3240      3241      3237      3240      3242      3237      3240      3243
      3238      3237      3239      3238      3237      3240      3239      3237      3240
      3240      3243      3244      3240      3243      3245      3240      3243      3246
      3241      3240      3242      3241      3240      3243      3242      3240      3243
      3244      3243      3245      3244      3243      3246      3245      3243      3246
      3247      3249      3250      3247      3251      3252      3247      3251      3253
      3247      3251      3254      3247      3293      3290      3247      3293      3294
      3247      3293      3295      3248      3247      3249      3248      3247      3251
      3248      3247      3293      3249      3247      3251      3249      3247      3293
      3251      3247      3293      3251      3254      3255      3251      3254      3285
      3252      3251      3253      3252      3251      3254      3253      3251      3254
      3254      3255      3256      3254      3255      3257      3254      3285      3283
      3254      3285      3286      3254      3285      3290      3255      3254      3285
      3255      3257      3258      3255      3257      3259      3255      3257      3260
      3256      3255      3257      3257      3260      3261      3257      3260      3262
      3257      3260      3283      3258      3257      3259      3258      3257      3260
      3259      3257      3260      3260      3262      3263      3260      3262      3264
      3260      3262      3272      3260      3283      3280      3260      3283      3284
      3260      3283      3285      3261      3260      3262      3261      3260      3283
      3262      3260      3283      3262      3264      3265      3262      3264      3266
      3262      3264      3267      3262      3272      3270      3262      3272      3273
      3262      3272      3277      3263      3262      3264      3263      3262      3272
      3264      3262      3272      3264      3267      3268      3264      3267      3269
      3264      3267      3270      3265      3264      3266      3265      3264      3267
      3266      3264      3267      3267      3270      3271      3267      3270      3272
      3267      3270      3296      3268      3267      3269      3268      3267      3270
      3269      3267      3270      3270      3272      3273      3270      3272      3277
      3270      3296      3297      3270      3296      3298      3270      3296      3302
      3271      3270      3272      3271      3270      3296      3272      3270      3296
      3272      3273      3274      3272      3273      3275      3272      3273      3276
      3272      3277      3278      3272      3277      3279      3272      3277      3280
      3273      3272      3277      3274      3273      3275      3274      3273      3276
      3275      3273      3276      3277      3280      3281      3277      3280      3282
      3277      3280      3283      3278      3277      3279      3278      3277      3280
      3279      3277      3280      3280      3283      3284      3280      3283      3285
      3281      3280      3282      3281      3280      3283      3282      3280      3283
      3283      3285      3286      3283      3285      3290      3284      3283      3285
      3285      3286      3287      3285      3286      3288      3285      3286      3289
      3285      3290      3291      3285      3290      3292      3285      3290      3293
      3286      3285      3290      3287      3286      3288      3287      3286      3289
      3288      3286      3289      3290      3293      3294      3290      3293      3295
      3291      3290      3292      3291      3290      3293      3292      3290      3293
      3294      3293      3295      3296      3298      3299      3296      3298      3300
      3296      3298      3301      3296      3302      3303      3296      3302      3304
      3296      3302      3305      3297      3296      3298      3297      3296      3302
      3298      3296      3302      3299      3298      3300      3299      3298      3301
      3300      3298      3301      3302      3305      3306      3302      3305      3307
      3302      3305      3308      3303      3302      3304      3303      3302      3305
      3304      3302      3305      3305      3308      3309      3305      3308      3310
      3305      3308      3311      3306      3305      3307      3306      3305      3308
      3307      3305      3308      3308      3311      3312      3308      3311      3313
      3308      3311      3317      3309      3308      3310      3309      3308      3311
      3310      3308      3311      3311      3313      3314      3311      3313      3315
      3311      3313      3316      3311      3317      3318      3311      3317      3319
      3311      3317      3320      3312      3311      3313      3312      3311      3317
      3313      3311      3317      3314      3313      3315      3314      3313      3316
      3315      3313      3316      3318      3317      3319      3318      3317      3320
      3319      3317      3320      3321      3325      3326      3321      3325      3327
      3321      3325      3328      3322      3321      3323      3322      3321      3324
      3322      3321      3325      3323      3321      3324      3323      3321      3325
      3324      3321      3325      3325      3328      3329      3325      3328      3330
      3325      3328      3334      3326      3325      3327      3326      3325      3328
      3327      3325      3328      3328      3334      3331      3329      3328      3330
      3329      3328      3334      3330      3328      3334      3331      3335      3336
      3332      3331      3333      3332      3331      3334      3332      3331      3335
      3333      3331      3334      3333      3331      3335      3334      3331      3335
      3335      3336      3337      3335      3336      3338      3335      3336      3339
      3336      3339      3340      3336      3339      3341      3336      3339      3347
      3337      3336      3338      3337      3336      3339      3338      3336      3339
      3339      3341      3342      3339      3347      3348      3339      3347      3349
      3339      3347      3350      3340      3339      3341      3340      3339      3347
      3341      3339      3347      3341      3342      3343      3341      3342      3344
      3342      3344      3345      3342      3344      3346      3342      3344      3356
      3343      3342      3344      3344      3356      3357      3344      3356      3358
      3344      3356      3359      3345      3344      3346      3345      3344      3356
      3346      3344      3356      3347      3350      3351      3348      3347      3349
      3348      3347      3350      3349      3347      3350      3350      3351      3352
      3350      3351      3353      3351      3353      3354      3351      3353      3355
      3351      3353      3403      3352      3351      3353      3353      3403      3404
      3353      3403      3405      3353      3403      3406      3354      3353      3355
      3354      3353      3403      3355      3353      3403      3356      3359      3360
      3356      3359      3361      3356      3359      3362      3357      3356      3358
      3357      3356      3359      3358      3356      3359      3359      3362      3363
      3359      3362      3364      3360      3359      3361      3360      3359      3362
      3361      3359      3362      3362      3364      3365      3362      3364      3366
      3363      3362      3364      3364      3366      3367      3364      3366      3368
      3364      3366      3369      3365      3364      3366      3366      3369      3370
      3366      3369      3371      3367      3366      3368      3367      3366      3369
      3368      3366      3369      3369      3371      3372      3369      3371      3373
      3370      3369      3371      3371      3373      3374      3371      3373      3375
      3371      3373      3376      3372      3371      3373      3373      3376      3377
      3373      3376      3378      3374      3373      3375      3374      3373      3376
      3375      3373      3376      3376      3378      3379      3376      3378      3380
      3377      3376      3378      3378      3380      3381      3378      3380      3382
      3378      3380      3383      3379      3378      3380      3380      3383      3384
      3380      3383      3385      3381      3380      3382      3381      3380      3383
      3382      3380      3383      3383      3385      3386      3383      3385      3387
      3384      3383      3385      3385      3387      3388      3385      3387      3389
      3385      3387      3390      3386      3385      3387      3387      3390      3391
      3387      3390      3392      3387      3390      3393      3388      3387      3389
      3388      3387      3390      3389      3387      3390      3390      3393      3394
      3390      3393      3395      3390      3393      3396      3391      3390      3392
      3391      3390      3393      3392      3390      3393      3393      3396      3397
      3393      3396      3398      3393      3396      3399      3394      3393      3395
      3394      3393      3396      3395      3393      3396      3396      3399      3400
      3396      3399      3401      3396      3399      3402      3397      3396      3398
      3397      3396      3399      3398      3396      3399      3400      3399      3401
      3400      3399      3402      3401      3399      3402      3403      3406      3407
      3403      3406      3408      3403      3406      3409      3404      3403      3405
      3404      3403      3406      3405      3403      3406      3406      3409      3410
      3406      3409      3411      3406      3409      3412      3407      3406      3408
      3407      3406      3409      3408      3406      3409      3409      3412      3413
      3409      3412      3414      3409      3412      3415      3410      3409      3411
      3410      3409      3412      3411      3409      3412      3412      3415      3416
      3412      3415      3417      3412      3415      3418      3413      3412      3414
      3413      3412      3415      3414      3412      3415      3415      3418      3419
      3415      3418      3420      3415      3418      3421      3416      3415      3417
      3416      3415      3418      3417      3415      3418      3418      3421      3422
      3418      3421      3423      3418      3421      3424      3419      3418      3420
      3419      3418      3421      3420      3418      3421      3421      3424      3425
      3421      3424      3426      3421      3424      3427      3422      3421      3423
      3422      3421      3424      3423      3421      3424      3424      3427      3428
      3424      3427      3429      3424      3427      3430      3425      3424      3426
      3425      3424      3427      3426      3424      3427      3427      3430      3431
      3427      3430      3432      3427      3430      3433      3428      3427      3429
      3428      3427      3430      3429      3427      3430      3430      3433      3434
      3430      3433      3435      3430      3433      3436      3431      3430      3432
      3431      3430      3433      3432      3430      3433      3433      3436      3437
      3433      3436      3438      3433      3436      3439      3434      3433      3435
      3434      3433      3436      3435      3433      3436      3436      3439      3440
      3436      3439      3441      3436      3439      3442      3437      3436      3438
      3437      3436      3439      3438      3436      3439      3439      3442      3443
      3439      3442      3444      3439      3442      3445      3440      3439      3441
      3440      3439      3442      3441      3439      3442      3442      3445      3446
      3442      3445      3447      3442      3445      3448      3443      3442      3444
      3443      3442      3445      3444      3442      3445      3445      3448      3449
      3445      3448      3450      3445      3448      3451      3446      3445      3447
      3446      3445      3448      3447      3445      3448      3449      3448      3450
      3449      3448      3451      3450      3448      3451      3452      3453      3454
      3452      3453      3455      3452      3453      3456      3452      3457      3458
      3452      3457      3459      3452      3457      3460      3452      3461      3462
      3452      3461      3463      3452      3461      3464      3452      3465      3466
      3452      3465      3467      3452      3465      3468      3453      3452      3457
      3453      3452      3461      3453      3452      3465      3454      3453      3455
      3454      3453      3456      3455      3453      3456      3457      3452      3461
      3457      3452      3465      3458      3457      3459      3458      3457      3460
      3459      3457      3460      3461      3452      3465      3462      3461      3463
      3462      3461      3464      3463      3461      3464      3465      3468      3469
      3465      3468      3470      3465      3468      3474      3466      3465      3467
      3466      3465      3468      3467      3465      3468      3468      3474      3471
      3469      3468      3470      3469      3468      3474      3470      3468      3474
      3471      3475      3476      3472      3471      3473      3472      3471      3474
      3472      3471      3475      3473      3471      3474      3473      3471      3475
      3474      3471      3475      3475      3476      3477      3475      3476      3478
      3475      3476      3479      3476      3479      3480      3476      3479      3481
      3476      3479      3487      3477      3476      3478      3477      3476      3479
      3478      3476      3479      3479      3481      3482      3479      3487      3488
      3479      3487      3489      3479      3487      3490      3480      3479      3481
      3480      3479      3487      3481      3479      3487      3481      3482      3483
      3481      3482      3484      3482      3484      3485      3482      3484      3486
      3482      3484      3496      3483      3482      3484      3484      3496      3497
      3484      3496      3498      3484      3496      3499      3485      3484      3486
      3485      3484      3496      3486      3484      3496      3487      3490      3491
      3488      3487      3489      3488      3487      3490      3489      3487      3490
      3490      3491      3492      3490      3491      3493      3491      3493      3494
      3491      3493      3495      3491      3493      3541      3492      3491      3493
      3493      3541      3542      3493      3541      3543      3493      3541      3544
      3494      3493      3495      3494      3493      3541      3495      3493      3541
      3496      3499      3500      3496      3499      3501      3496      3499      3502
      3497      3496      3498      3497      3496      3499      3498      3496      3499
      3499      3502      3503      3499      3502      3504      3499      3502      3505
      3500      3499      3501      3500      3499      3502      3501      3499      3502
      3502      3505      3506      3502      3505      3507      3502      3505      3508
      3503      3502      3504      3503      3502      3505      3504      3502      3505
      3505      3508      3509      3505      3508      3510      3505      3508      3511
      3506      3505      3507      3506      3505      3508      3507      3505      3508
      3508      3511      3512      3508      3511      3513      3508      3511      3514
      3509      3508      3510      3509      3508      3511      3510      3508      3511
      3511      3514      3515      3511      3514      3516      3512      3511      3513
      3512      3511      3514      3513      3511      3514      3514      3516      3517
      3514      3516      3518      3515      3514      3516      3516      3518      3519
      3516      3518      3520      3516      3518      3521      3517      3516      3518
      3518      3521      3522      3518      3521      3523      3519      3518      3520
      3519      3518      3521      3520      3518      3521      3521      3523      3524
      3521      3523      3525      3522      3521      3523      3523      3525      3526
      3523      3525      3527      3523      3525      3528      3524      3523      3525
      3525      3528      3529      3525      3528      3530      3525      3528      3531
      3526      3525      3527      3526      3525      3528      3527      3525      3528
      3528      3531      3532      3528      3531      3533      3528      3531      3534
      3529      3528      3530      3529      3528      3531      3530      3528      3531
      3531      3534      3535      3531      3534      3536      3531      3534      3537
      3532      3531      3533      3532      3531      3534      3533      3531      3534
      3534      3537      3538      3534      3537      3539      3534      3537      3540
      3535      3534      3536      3535      3534      3537      3536      3534      3537
      3538      3537      3539      3538      3537      3540      3539      3537      3540
      3541      3544      3545      3541      3544      3546      3541      3544      3547
      3542      3541      3543      3542      3541      3544      3543      3541      3544
      3544      3547      3548      3544      3547      3549      3544      3547      3550
      3545      3544      3546      3545      3544      3547      3546      3544      3547
      3547      3550      3551      3547      3550      3552      3547      3550      3553
      3548      3547      3549      3548      3547      3550      3549      3547      3550
      3550      3553      3554      3550      3553      3555      3550      3553      3556
      3551      3550      3552      3551      3550      3553      3552      3550      3553
      3553      3556      3557      3553      3556      3558      3553      3556      3559
      3554      3553      3555      3554      3553      3556      3555      3553      3556
      3556      3559      3560      3556      3559      3561      3556      3559      3562
      3557      3556      3558      3557      3556      3559      3558      3556      3559
      3559      3562      3563      3559      3562      3564      3559      3562      3565
      3560      3559      3561      3560      3559      3562      3561      3559      3562
      3562      3565      3566      3562      3565      3567      3562      3565      3568
      3563      3562      3564      3563      3562      3565      3564      3562      3565
      3565      3568      3569      3565      3568      3570      3565      3568      3571
      3566      3565      3567      3566      3565      3568      3567      3565      3568
      3568      3571      3572      3568      3571      3573      3568      3571      3574
      3569      3568      3570      3569      3568      3571      3570      3568      3571
      3571      3574      3575      3571      3574      3576      3571      3574      3577
      3572      3571      3573      3572      3571      3574      3573      3571      3574
      3574      3577      3578      3574      3577      3579      3574      3577      3580
      3575      3574      3576      3575      3574      3577      3576      3574      3577
      3577      3580      3581      3577      3580      3582      3577      3580      3583
      3578      3577      3579      3578      3577      3580      3579      3577      3580
      3580      3583      3584      3580      3583      3585      3580      3583      3586
      3581      3580      3582      3581      3580      3583      3582      3580      3583
      3583      3586      3587      3583      3586      3588      3583      3586      3589
      3584      3583      3585      3584      3583      3586      3585      3583      3586
      3587      3586      3588      3587      3586      3589      3588      3586      3589
      3590      3592      3593      3590      3594      3595      3590      3594      3596
      3590      3594      3597      3590      3636      3633      3590      3636      3637
      3590      3636      3638      3591      3590      3592      3591      3590      3594
      3591      3590      3636      3592      3590      3594      3592      3590      3636
      3594      3590      3636      3594      3597      3598      3594      3597      3628
      3595      3594      3596      3595      3594      3597      3596      3594      3597
      3597      3598      3599      3597      3598      3600      3597      3628      3626
      3597      3628      3629      3597      3628      3633      3598      3597      3628
      3598      3600      3601      3598      3600      3602      3598      3600      3603
      3599      3598      3600      3600      3603      3604      3600      3603      3605
      3600      3603      3626      3601      3600      3602      3601      3600      3603
      3602      3600      3603      3603      3605      3606      3603      3605      3607
      3603      3605      3615      3603      3626      3623      3603      3626      3627
      3603      3626      3628      3604      3603      3605      3604      3603      3626
      3605      3603      3626      3605      3607      3608      3605      3607      3609
      3605      3607      3610      3605      3615      3613      3605      3615      3616
      3605      3615      3620      3606      3605      3607      3606      3605      3615
      3607      3605      3615      3607      3610      3611      3607      3610      3612
      3607      3610      3613      3608      3607      3609      3608      3607      3610
      3609      3607      3610      3610      3613      3614      3610      3613      3615
      3610      3613      3639      3611      3610      3612      3611      3610      3613
      3612      3610      3613      3613      3615      3616      3613      3615      3620
      3613      3639      3640      3613      3639      3641      3613      3639      3645
      3614      3613      3615      3614      3613      3639      3615      3613      3639
      3615      3616      3617      3615      3616      3618      3615      3616      3619
      3615      3620      3621      3615      3620      3622      3615      3620      3623
      3616      3615      3620      3617      3616      3618      3617      3616      3619
      3618      3616      3619      3620      3623      3624      3620      3623      3625
      3620      3623      3626      3621      3620      3622      3621      3620      3623
      3622      3620      3623      3623      3626      3627      3623      3626      3628
      3624      3623      3625      3624      3623      3626      3625      3623      3626
      3626      3628      3629      3626      3628      3633      3627      3626      3628
      3628      3629      3630      3628      3629      3631      3628      3629      3632
      3628      3633      3634      3628      3633      3635      3628      3633      3636
      3629      3628      3633      3630      3629      3631      3630      3629      3632
      3631      3629      3632      3633      3636      3637      3633      3636      3638
      3634      3633      3635      3634      3633      3636      3635      3633      3636
      3637      3636      3638      3639      3641      3642      3639      3641      3643
      3639      3641      3644      3639      3645      3646      3639      3645      3647
      3639      3645      3648      3640      3639      3641      3640      3639      3645
      3641      3639      3645      3642      3641      3643      3642      3641      3644
      3643      3641      3644      3645      3648      3649      3645      3648      3650
      3645      3648      3651      3646      3645      3647      3646      3645      3648
      3647      3645      3648      3648      3651      3652      3648      3651      3653
      3648      3651      3654      3649      3648      3650      3649      3648      3651
      3650      3648      3651      3651      3654      3655      3651      3654      3656
      3651      3654      3660      3652      3651      3653      3652      3651      3654
      3653      3651      3654      3654      3656      3657      3654      3656      3658
      3654      3656      3659      3654      3660      3661      3654      3660      3662
      3654      3660      3663      3655      3654      3656      3655      3654      3660
      3656      3654      3660      3657      3656      3658      3657      3656      3659
      3658      3656      3659      3661      3660      3662      3661      3660      3663
      3662      3660      3663      3664      3668      3669      3664      3668      3670
      3664      3668      3671      3665      3664      3666      3665      3664      3667
      3665      3664      3668      3666      3664      3667      3666      3664      3668
      3667      3664      3668      3668      3671      3672      3668      3671      3673
      3668      3671      3677      3669      3668      3670      3669      3668      3671
      3670      3668      3671      3671      3677      3674      3672      3671      3673
      3672      3671      3677      3673      3671      3677      3674      3678      3679
      3675      3674      3676      3675      3674      3677      3675      3674      3678
      3676      3674      3677      3676      3674      3678      3677      3674      3678
      3678      3679      3680      3678      3679      3681      3678      3679      3682
      3679      3682      3683      3679      3682      3684      3679      3682      3690
      3680      3679      3681      3680      3679      3682      3681      3679      3682
      3682      3684      3685      3682      3690      3691      3682      3690      3692
      3682      3690      3693      3683      3682      3684      3683      3682      3690
      3684      3682      3690      3684      3685      3686      3684      3685      3687
      3685      3687      3688      3685      3687      3689      3685      3687      3699
      3686      3685      3687      3687      3699      3700      3687      3699      3701
      3687      3699      3702      3688      3687      3689      3688      3687      3699
      3689      3687      3699      3690      3693      3694      3691      3690      3692
      3691      3690      3693      3692      3690      3693      3693      3694      3695
      3693      3694      3696      3694      3696      3697      3694      3696      3698
      3694      3696      3746      3695      3694      3696      3696      3746      3747
      3696      3746      3748      3696      3746      3749      3697      3696      3698
      3697      3696      3746      3698      3696      3746      3699      3702      3703
      3699      3702      3704      3699      3702      3705      3700      3699      3701
      3700      3699      3702      3701      3699      3702      3702      3705      3706
      3702      3705      3707      3703      3702      3704      3703      3702      3705
      3704      3702      3705      3705      3707      3708      3705      3707      3709
      3706      3705      3707      3707      3709      3710      3707      3709      3711
      3707      3709      3712      3708      3707      3709      3709      3712      3713
      3709      3712      3714      3710      3709      3711      3710      3709      3712
      3711      3709      3712      3712      3714      3715      3712      3714      3716
      3713      3712      3714      3714      3716      3717      3714      3716      3718
      3714      3716      3719      3715      3714      3716      3716      3719      3720
      3716      3719      3721      3717      3716      3718      3717      3716      3719
      3718      3716      3719      3719      3721      3722      3719      3721      3723
      3720      3719      3721      3721      3723      3724      3721      3723      3725
      3721      3723      3726      3722      3721      3723      3723      3726      3727
      3723      3726      3728      3724      3723      3725      3724      3723      3726
      3725      3723      3726      3726      3728      3729      3726      3728      3730
      3727      3726      3728      3728      3730      3731      3728      3730      3732
      3728      3730      3733      3729      3728      3730      3730      3733      3734
      3730      3733      3735      3730      3733      3736      3731      3730      3732
      3731      3730      3733      3732      3730      3733      3733      3736      3737
      3733      3736      3738      3733      3736      3739      3734      3733      3735
      3734      3733      3736      3735      3733      3736      3736      3739      3740
      3736      3739      3741      3736      3739      3742      3737      3736      3738
      3737      3736      3739      3738      3736      3739      3739      3742      3743
      3739      3742      3744      3739      3742      3745      3740      3739      3741
      3740      3739      3742      3741      3739      3742      3743      3742      3744
      3743      3742      3745      3744      3742      3745      3746      3749      3750
      3746      3749      3751      3746      3749      3752      3747      3746      3748
      3747      3746      3749      3748      3746      3749      3749      3752      3753
      3749      3752      3754      3749      3752      3755      3750      3749      3751
      3750      3749      3752      3751      3749      3752      3752      3755      3756
      3752      3755      3757      3752      3755      3758      3753      3752      3754
      3753      3752      3755      3754      3752      3755      3755      3758      3759
      3755      3758      3760      3755      3758      3761      3756      3755      3757
      3756      3755      3758      3757      3755      3758      3758      3761      3762
      3758      3761      3763      3758      3761      3764      3759      3758      3760
      3759      3758      3761      3760      3758      3761      3761      3764      3765
      3761      3764      3766      3761      3764      3767      3762      3761      3763
      3762      3761      3764      3763      3761      3764      3764      3767      3768
      3764      3767      3769      3764      3767      3770      3765      3764      3766
      3765      3764      3767      3766      3764      3767      3767      3770      3771
      3767      3770      3772      3767      3770      3773      3768      3767      3769
      3768      3767      3770      3769      3767      3770      3770      3773      3774
      3770      3773      3775      3770      3773      3776      3771      3770      3772
      3771      3770      3773      3772      3770      3773      3773      3776      3777
      3773      3776      3778      3773      3776      3779      3774      3773      3775
      3774      3773      3776      3775      3773      3776      3776      3779      3780
      3776      3779      3781      3776      3779      3782      3777      3776      3778
      3777      3776      3779      3778      3776      3779      3779      3782      3783
      3779      3782      3784      3779      3782      3785      3780      3779      3781
      3780      3779      3782      3781      3779      3782      3782      3785      3786
      3782      3785      3787      3782      3785      3788      3783      3782      3784
      3783      3782      3785      3784      3782      3785      3785      3788      3789
      3785      3788      3790      3785      3788      3791      3786      3785      3787
      3786      3785      3788      3787      3785      3788      3788      3791      3792
      3788      3791      3793      3788      3791      3794      3789      3788      3790
      3789      3788      3791      3790      3788      3791      3792      3791      3793
      3792      3791      3794      3793      3791      3794      3795      3797      3798
      3795      3799      3800      3795      3799      3801      3795      3799      3802
      3795      3841      3838      3795      3841      3842      3795      3841      3843
      3796      3795      3797      3796      3795      3799      3796      3795      3841
      3797      3795      3799      3797      3795      3841      3799      3795      3841
      3799      3802      3803      3799      3802      3833      3800      3799      3801
      3800      3799      3802      3801      3799      3802      3802      3803      3804
      3802      3803      3805      3802      3833      3831      3802      3833      3834
      3802      3833      3838      3803      3802      3833      3803      3805      3806
      3803      3805      3807      3803      3805      3808      3804      3803      3805
      3805      3808      3809      3805      3808      3810      3805      3808      3831
      3806      3805      3807      3806      3805      3808      3807      3805      3808
      3808      3810      3811      3808      3810      3812      3808      3810      3820
      3808      3831      3828      3808      3831      3832      3808      3831      3833
      3809      3808      3810      3809      3808      3831      3810      3808      3831
      3810      3812      3813      3810      3812      3814      3810      3812      3815
      3810      3820      3818      3810      3820      3821      3810      3820      3825
      3811      3810      3812      3811      3810      3820      3812      3810      3820
      3812      3815      3816      3812      3815      3817      3812      3815      3818
      3813      3812      3814      3813      3812      3815      3814      3812      3815
      3815      3818      3819      3815      3818      3820      3815      3818      3844
      3816      3815      3817      3816      3815      3818      3817      3815      3818
      3818      3820      3821      3818      3820      3825      3818      3844      3845
      3818      3844      3846      3818      3844      3850      3819      3818      3820
      3819      3818      3844      3820      3818      3844      3820      3821      3822
      3820      3821      3823      3820      3821      3824      3820      3825      3826
      3820      3825      3827      3820      3825      3828      3821      3820      3825
      3822      3821      3823      3822      3821      3824      3823      3821      3824
      3825      3828      3829      3825      3828      3830      3825      3828      3831
      3826      3825      3827      3826      3825      3828      3827      3825      3828
      3828      3831      3832      3828      3831      3833      3829      3828      3830
      3829      3828      3831      3830      3828      3831      3831      3833      3834
      3831      3833      3838      3832      3831      3833      3833      3834      3835
      3833      3834      3836      3833      3834      3837      3833      3838      3839
      3833      3838      3840      3833      3838      3841      3834      3833      3838
      3835      3834      3836      3835      3834      3837      3836      3834      3837
      3838      3841      3842      3838      3841      3843      3839      3838      3840
      3839      3838      3841      3840      3838      3841      3842      3841      3843
      3844      3846      3847      3844      3846      3848      3844      3846      3849
      3844      3850      3851      3844      3850      3852      3844      3850      3853
      3845      3844      3846      3845      3844      3850      3846      3844      3850
      3847      3846      3848      3847      3846      3849      3848      3846      3849
      3850      3853      3854      3850      3853      3855      3850      3853      3856
      3851      3850      3852      3851      3850      3853      3852      3850      3853
      3853      3856      3857      3853      3856      3858      3853      3856      3859
      3854      3853      3855      3854      3853      3856      3855      3853      3856
      3856      3859      3860      3856      3859      3861      3856      3859      3865
      3857      3856      3858      3857      3856      3859      3858      3856      3859
      3859      3861      3862      3859      3861      3863      3859      3861      3864
      3859      3865      3866      3859      3865      3867      3859      3865      3868
      3860      3859      3861      3860      3859      3865      3861      3859      3865
      3862      3861      3863      3862      3861      3864      3863      3861      3864
      3866      3865      3867      3866      3865      3868      3867      3865      3868
      3869      3871      3872      3869      3873      3874      3869      3873      3875
      3869      3873      3876      3869      3915      3912      3869      3915      3916
      3869      3915      3917      3870      3869      3871      3870      3869      3873
      3870      3869      3915      3871      3869      3873      3871      3869      3915
      3873      3869      3915      3873      3876      3877      3873      3876      3907
      3874      3873      3875      3874      3873      3876      3875      3873      3876
      3876      3877      3878      3876      3877      3879      3876      3907      3905
      3876      3907      3908      3876      3907      3912      3877      3876      3907
      3877      3879      3880      3877      3879      3881      3877      3879      3882
      3878      3877      3879      3879      3882      3883      3879      3882      3884
      3879      3882      3905      3880      3879      3881      3880      3879      3882
      3881      3879      3882      3882      3884      3885      3882      3884      3886
      3882      3884      3894      3882      3905      3902      3882      3905      3906
      3882      3905      3907      3883      3882      3884      3883      3882      3905
      3884      3882      3905      3884      3886      3887      3884      3886      3888
      3884      3886      3889      3884      3894      3892      3884      3894      3895
      3884      3894      3899      3885      3884      3886      3885      3884      3894
      3886      3884      3894      3886      3889      3890      3886      3889      3891
      3886      3889      3892      3887      3886      3888      3887      3886      3889
      3888      3886      3889      3889      3892      3893      3889      3892      3894
      3889      3892      3918      3890      3889      3891      3890      3889      3892
      3891      3889      3892      3892      3894      3895      3892      3894      3899
      3892      3918      3919      3892      3918      3920      3892      3918      3924
      3893      3892      3894      3893      3892      3918      3894      3892      3918
      3894      3895      3896      3894      3895      3897      3894      3895      3898
      3894      3899      3900      3894      3899      3901      3894      3899      3902
      3895      3894      3899      3896      3895      3897      3896      3895      3898
      3897      3895      3898      3899      3902      3903      3899      3902      3904
      3899      3902      3905      3900      3899      3901      3900      3899      3902
      3901      3899      3902      3902      3905      3906      3902      3905      3907
      3903      3902      3904      3903      3902      3905      3904      3902      3905
      3905      3907      3908      3905      3907      3912      3906      3905      3907
      3907      3908      3909      3907      3908      3910      3907      3908      3911
      3907      3912      3913      3907      3912      3914      3907      3912      3915
      3908      3907      3912      3909      3908      3910      3909      3908      3911
      3910      3908      3911      3912      3915      3916      3912      3915      3917
      3913      3912      3914      3913      3912      3915      3914      3912      3915
      3916      3915      3917      3918      3920      3921      3918      3920      3922
      3918      3920      3923      3918      3924      3925      3918      3924      3926
      3918      3924      3927      3919      3918      3920      3919      3918      3924
      3920      3918      3924      3921      3920      3922      3921      3920      3923
      3922      3920      3923      3924      3927      3928      3924      3927      3929
      3924      3927      3930      3925      3924      3926      3925      3924      3927
      3926      3924      3927      3927      3930      3931      3927      3930      3932
      3927      3930      3933      3928      3927      3929      3928      3927      3930
      3929      3927      3930      3930      3933      3934      3930      3933      3935
      3930      3933      3939      3931      3930      3932      3931      3930      3933
      3932      3930      3933      3933      3935      3936      3933      3935      3937
      3933      3935      3938      3933      3939      3940      3933      3939      3941
      3933      3939      3942      3934      3933      3935      3934      3933      3939
      3935      3933      3939      3936      3935      3937      3936      3935      3938
      3937      3935      3938      3940      3939      3941      3940      3939      3942
      3941      3939      3942      3943      3947      3948      3943      3947      3949
      3943      3947      3952      3944      3943      3945      3944      3943      3946
      3944      3943      3947      3945      3943      3946      3945      3943      3947
      3946      3943      3947      3947      3949      3950      3947      3949      3951
      3947      3952      3953      3947      3952      3954      3947      3952      3958
      3948      3947      3949      3948      3947      3952      3949      3947      3952
      3950      3949      3951      3952      3958      3955      3953      3952      3954
      3953      3952      3958      3954      3952      3958      3955      3959      3960
      3956      3955      3957      3956      3955      3958      3956      3955      3959
      3957      3955      3958      3957      3955      3959      3958      3955      3959
      3959      3960      3961      3959      3960      3962      3959      3960      3963
      3960      3963      3964      3960      3963      3965      3960      3963      3971
      3961      3960      3962      3961      3960      3963      3962      3960      3963
      3963      3965      3966      3963      3971      3972      3963      3971      3973
      3963      3971      3974      3964      3963      3965      3964      3963      3971
      3965      3963      3971      3965      3966      3967      3965      3966      3968
      3966      3968      3969      3966      3968      3970      3966      3968      3980
      3967      3966      3968      3968      3980      3981      3968      3980      3982
      3968      3980      3983      3969      3968      3970      3969      3968      3980
      3970      3968      3980      3971      3974      3975      3972      3971      3973
      3972      3971      3974      3973      3971      3974      3974      3975      3976
      3974      3975      3977      3975      3977      3978      3975      3977      3979
      3975      3977      4027      3976      3975      3977      3977      4027      4028
      3977      4027      4029      3977      4027      4030      3978      3977      3979
      3978      3977      4027      3979      3977      4027      3980      3983      3984
      3980      3983      3985      3980      3983      3986      3981      3980      3982
      3981      3980      3983      3982      3980      3983      3983      3986      3987
      3983      3986      3988      3984      3983      3985      3984      3983      3986
      3985      3983      3986      3986      3988      3989      3986      3988      3990
      3987      3986      3988      3988      3990      3991      3988      3990      3992
      3988      3990      3993      3989      3988      3990      3990      3993      3994
      3990      3993      3995      3991      3990      3992      3991      3990      3993
      3992      3990      3993      3993      3995      3996      3993      3995      3997
      3994      3993      3995      3995      3997      3998      3995      3997      3999
      3995      3997      4000      3996      3995      3997      3997      4000      4001
      3997      4000      4002      3998      3997      3999      3998      3997      4000
      3999      3997      4000      4000      4002      4003      4000      4002      4004
      4001      4000      4002      4002      4004      4005      4002      4004      4006
      4002      4004      4007      4003      4002      4004      4004      4007      4008
      4004      4007      4009      4005      4004      4006      4005      4004      4007
      4006      4004      4007      4007      4009      4010      4007      4009      4011
      4008      4007      4009      4009      4011      4012      4009      4011      4013
      4009      4011      4014      4010      4009      4011      4011      4014      4015
      4011      4014      4016      4011      4014      4017      4012      4011      4013
      4012      4011      4014      4013      4011      4014      4014      4017      4018
      4014      4017      4019      4014      4017      4020      4015      4014      4016
      4015      4014      4017      4016      4014      4017      4017      4020      4021
      4017      4020      4022      4017      4020      4023      4018      4017      4019
      4018      4017      4020      4019      4017      4020      4020      4023      4024
      4020      4023      4025      4020      4023      4026      4021      4020      4022
      4021      4020      4023      4022      4020      4023      4024      4023      4025
      4024      4023      4026      4025      4023      4026      4027      4030      4031
      4027      4030      4032      4027      4030      4033      4028      4027      4029
      4028      4027      4030      4029      4027      4030      4030      4033      4034
      4030      4033      4035      4030      4033      4036      4031      4030      4032
      4031      4030      4033      4032      4030      4033      4033      4036      4037
      4033      4036      4038      4033      4036      4039      4034      4033      4035
      4034      4033      4036      4035      4033      4036      4036      4039      4040
      4036      4039      4041      4036      4039      4042      4037      4036      4038
      4037      4036      4039      4038      4036      4039      4039      4042      4043
      4039      4042      4044      4039      4042      4045      4040      4039      4041
      4040      4039      4042      4041      4039      4042      4042      4045      4046
      4042      4045      4047      4042      4045      4048      4043      4042      4044
      4043      4042      4045      4044      4042      4045      4045      4048      4049
      4045      4048      4050      4045      4048      4051      4046      4045      4047
      4046      4045      4048      4047      4045      4048      4048      4051      4052
      4048      4051      4053      4048      4051      4054      4049      4048      4050
      4049      4048      4051      4050      4048      4051      4051      4054      4055
      4051      4054      4056      4051      4054      4057      4052      4051      4053
      4052      4051      4054      4053      4051      4054      4054      4057      4058
      4054      4057      4059      4054      4057      4060      4055      4054      4056
      4055      4054      4057      4056      4054      4057      4057      4060      4061
      4057      4060      4062      4057      4060      4063      4058      4057      4059
      4058      4057      4060      4059      4057      4060      4060      4063      4064
      4060      4063      4065      4060      4063      4066      4061      4060      4062
      4061      4060      4063      4062      4060      4063      4063      4066      4067
      4063      4066      4068      4063      4066      4069      4064      4063      4065
      4064      4063      4066      4065      4063      4066      4066      4069      4070
      4066      4069      4071      4066      4069      4072      4067      4066      4068
      4067      4066      4069      4068      4066      4069      4069      4072      4073
      4069      4072      4074      4069      4072      4075      4070      4069      4071
      4070      4069      4072      4071      4069      4072      4073      4072      4074
      4073      4072      4075      4074      4072      4075      4076      4080      4081
      4076      4080      4082      4076      4080      4083      4077      4076      4078
      4077      4076      4079      4077      4076      4080      4078      4076      4079
      4078      4076      4080      4079      4076      4080      4080      4083      4084
      4080      4083      4085      4080      4083      4089      4081      4080      4082
      4081      4080      4083      4082      4080      4083      4083      4089      4086
      4084      4083      4085      4084      4083      4089      4085      4083      4089
      4086      4090      4091      4087      4086      4088      4087      4086      4089
      4087      4086      4090      4088      4086      4089      4088      4086      4090
      4089      4086      4090      4090      4091      4092      4090      4091      4093
      4090      4091      4094      4091      4094      4095      4091      4094      4096
      4091      4094      4102      4092      4091      4093      4092      4091      4094
      4093      4091      4094      4094      4096      4097      4094      4102      4103
      4094      4102      4104      4094      4102      4105      4095      4094      4096
      4095      4094      4102      4096      4094      4102      4096      4097      4098
      4096      4097      4099      4097      4099      4100      4097      4099      4101
      4097      4099      4111      4098      4097      4099      4099      4111      4112
      4099      4111      4113      4099      4111      4114      4100      4099      4101
      4100      4099      4111      4101      4099      4111      4102      4105      4106
      4103      4102      4104      4103      4102      4105      4104      4102      4105
      4105      4106      4107      4105      4106      4108      4106      4108      4109
      4106      4108      4110      4106      4108      4158      4107      4106      4108
      4108      4158      4159      4108      4158      4160      4108      4158      4161
      4109      4108      4110      4109      4108      4158      4110      4108      4158
      4111      4114      4115      4111      4114      4116      4111      4114      4117
      4112      4111      4113      4112      4111      4114      4113      4111      4114
      4114      4117      4118      4114      4117      4119      4115      4114      4116
      4115      4114      4117      4116      4114      4117      4117      4119      4120
      4117      4119      4121      4118      4117      4119      4119      4121      4122
      4119      4121      4123      4119      4121      4124      4120      4119      4121
      4121      4124      4125      4121      4124      4126      4122      4121      4123
      4122      4121      4124      4123      4121      4124      4124      4126      4127
      4124      4126      4128      4125      4124      4126      4126      4128      4129
      4126      4128      4130      4126      4128      4131      4127      4126      4128
      4128      4131      4132      4128      4131      4133      4129      4128      4130
      4129      4128      4131      4130      4128      4131      4131      4133      4134
      4131      4133      4135      4132      4131      4133      4133      4135      4136
      4133      4135      4137      4133      4135      4138      4134      4133      4135
      4135      4138      4139      4135      4138      4140      4136      4135      4137
      4136      4135      4138      4137      4135      4138      4138      4140      4141
      4138      4140      4142      4139      4138      4140      4140      4142      4143
      4140      4142      4144      4140      4142      4145      4141      4140      4142
      4142      4145      4146      4142      4145      4147      4142      4145      4148
      4143      4142      4144      4143      4142      4145      4144      4142      4145
      4145      4148      4149      4145      4148      4150      4145      4148      4151
      4146      4145      4147      4146      4145      4148      4147      4145      4148
      4148      4151      4152      4148      4151      4153      4148      4151      4154
      4149      4148      4150      4149      4148      4151      4150      4148      4151
      4151      4154      4155      4151      4154      4156      4151      4154      4157
      4152      4151      4153      4152      4151      4154      4153      4151      4154
      4155      4154      4156      4155      4154      4157      4156      4154      4157
      4158      4161      4162      4158      4161      4163      4158      4161      4164
      4159      4158      4160      4159      4158      4161      4160      4158      4161
      4161      4164      4165      4161      4164      4166      4161      4164      4167
      4162      4161      4163      4162      4161      4164      4163      4161      4164
      4164      4167      4168      4164      4167      4169      4164      4167      4170
      4165      4164      4166      4165      4164      4167      4166      4164      4167
      4167      4170      4171      4167      4170      4172      4167      4170      4173
      4168      4167      4169      4168      4167      4170      4169      4167      4170
      4170      4173      4174      4170      4173      4175      4170      4173      4176
      4171      4170      4172      4171      4170      4173      4172      4170      4173
      4173      4176      4177      4173      4176      4178      4173      4176      4179
      4174      4173      4175      4174      4173      4176      4175      4173      4176
      4176      4179      4180      4176      4179      4181      4176      4179      4182
      4177      4176      4178      4177      4176      4179      4178      4176      4179
      4179      4182      4183      4179      4182      4184      4179      4182      4185
      4180      4179      4181      4180      4179      4182      4181      4179      4182
      4182      4185      4186      4182      4185      4187      4182      4185      4188
      4183      4182      4184      4183      4182      4185      4184      4182      4185
      4185      4188      4189      4185      4188      4190      4185      4188      4191
      4186      4185      4187      4186      4185      4188      4187      4185      4188
      4188      4191      4192      4188      4191      4193      4188      4191      4194
      4189      4188      4190      4189      4188      4191      4190      4188      4191
      4191      4194      4195      4191      4194      4196      4191      4194      4197
      4192      4191      4193      4192      4191      4194      4193      4191      4194
      4194      4197      4198      4194      4197      4199      4194      4197      4200
      4195      4194      4196      4195      4194      4197      4196      4194      4197
      4197      4200      4201      4197      4200      4202      4197      4200      4203
      4198      4197      4199      4198      4197      4200      4199      4197      4200
      4200      4203      4204      4200      4203      4205      4200      4203      4206
      4201      4200      4202      4201      4200      4203      4202      4200      4203
      4204      4203      4205      4204      4203      4206      4205      4203      4206
      4207      4208      4209      4207      4208      4210      4207      4208      4223
      4207      4211      4212      4207      4211      4213      4207      4211      4214
      4207      4215      4216      4207      4215      4217      4207      4215      4218
      4207      4219      4220      4207      4219      4221      4207      4219      4222
      4208      4207      4211      4208      4207      4215      4208      4207      4219
      4208      4223      4224      4208      4223      4225      4208      4223      4229
      4209      4208      4210      4209      4208      4223      4210      4208      4223
      4211      4207      4215      4211      4207      4219      4212      4211      4213
      4212      4211      4214      4213      4211      4214      4215      4207      4219
      4216      4215      4217      4216      4215      4218      4217      4215      4218
      4220      4219      4221      4220      4219      4222      4221      4219      4222
      4223      4229      4226      4224      4223      4225      4224      4223      4229
      4225      4223      4229      4226      4230      4231      4227      4226      4228
      4227      4226      4229      4227      4226      4230      4228      4226      4229
      4228      4226      4230      4229      4226      4230      4230      4231      4232
      4230      4231      4233      4230      4231      4234      4231      4234      4235
      4231      4234      4236      4231      4234      4242      4232      4231      4233
      4232      4231      4234      4233      4231      4234      4234      4236      4237
      4234      4242      4243      4234      4242      4244      4234      4242      4245
      4235      4234      4236      4235      4234      4242      4236      4234      4242
      4236      4237      4238      4236      4237      4239      4237      4239      4240
      4237      4239      4241      4237      4239      4251      4238      4237      4239
      4239      4251      4252      4239      4251      4253      4239      4251      4254
      4240      4239      4241      4240      4239      4251      4241      4239      4251
      4242      4245      4246      4243      4242      4244      4243      4242      4245
      4244      4242      4245      4245      4246      4247      4245      4246      4248
      4246      4248      4249      4246      4248      4250      4246      4248      4298
      4247      4246      4248      4248      4298      4299      4248      4298      4300
      4248      4298      4301      4249      4248      4250      4249      4248      4298
      4250      4248      4298      4251      4254      4255      4251      4254      4256
      4251      4254      4257      4252      4251      4253      4252      4251      4254
      4253      4251      4254      4254      4257      4258      4254      4257      4259
      4254      4257      4260      4255      4254      4256      4255      4254      4257
      4256      4254      4257      4257      4260      4261      4257      4260      4262
      4257      4260      4263      4258      4257      4259      4258      4257      4260
      4259      4257      4260      4260      4263      4264      4260      4263      4265
      4260      4263      4266      4261      4260      4262      4261      4260      4263
      4262      4260      4263      4263      4266      4267      4263      4266      4268
      4263      4266      4269      4264      4263      4265      4264      4263      4266
      4265      4263      4266      4266      4269      4270      4266      4269      4271
      4267      4266      4268      4267      4266      4269      4268      4266      4269
      4269      4271      4272      4269      4271      4273      4270      4269      4271
      4271      4273      4274      4271      4273      4275      4271      4273      4276
      4272      4271      4273      4273      4276      4277      4273      4276      4278
      4273      4276      4279      4274      4273      4275      4274      4273      4276
      4275      4273      4276      4276      4279      4280      4276      4279      4281
      4276      4279      4282      4277      4276      4278      4277      4276      4279
      4278      4276      4279      4279      4282      4283      4279      4282      4284
      4279      4282      4285      4280      4279      4281      4280      4279      4282
      4281      4279      4282      4282      4285      4286      4282      4285      4287
      4282      4285      4288      4283      4282      4284      4283      4282      4285
      4284      4282      4285      4285      4288      4289      4285      4288      4290
      4285      4288      4291      4286      4285      4287      4286      4285      4288
      4287      4285      4288      4288      4291      4292      4288      4291      4293
      4288      4291      4294      4289      4288      4290      4289      4288      4291
      4290      4288      4291      4291      4294      4295      4291      4294      4296
      4291      4294      4297      4292      4291      4293      4292      4291      4294
      4293      4291      4294      4295      4294      4296      4295      4294      4297
      4296      4294      4297      4298      4301      4302      4298      4301      4303
      4298      4301      4304      4299      4298      4300      4299      4298      4301
      4300      4298      4301      4301      4304      4305      4301      4304      4306
      4301      4304      4307      4302      4301      4303      4302      4301      4304
      4303      4301      4304      4304      4307      4308      4304      4307      4309
      4304      4307      4310      4305      4304      4306      4305      4304      4307
      4306      4304      4307      4307      4310      4311      4307      4310      4312
      4307      4310      4313      4308      4307      4309      4308      4307      4310
      4309      4307      4310      4310      4313      4314      4310      4313      4315
      4310      4313      4316      4311      4310      4312      4311      4310      4313
      4312      4310      4313      4313      4316      4317      4313      4316      4318
      4313      4316      4319      4314      4313      4315      4314      4313      4316
      4315      4313      4316      4316      4319      4320      4316      4319      4321
      4316      4319      4322      4317      4316      4318      4317      4316      4319
      4318      4316      4319      4319      4322      4323      4319      4322      4324
      4319      4322      4325      4320      4319      4321      4320      4319      4322
      4321      4319      4322      4322      4325      4326      4322      4325      4327
      4322      4325      4328      4323      4322      4324      4323      4322      4325
      4324      4322      4325      4325      4328      4329      4325      4328      4330
      4325      4328      4331      4326      4325      4327      4326      4325      4328
      4327      4325      4328      4328      4331      4332      4328      4331      4333
      4328      4331      4334      4329      4328      4330      4329      4328      4331
      4330      4328      4331      4331      4334      4335      4331      4334      4336
      4331      4334      4337      4332      4331      4333      4332      4331      4334
      4333      4331      4334      4334      4337      4338      4334      4337      4339
      4334      4337      4340      4335      4334      4336      4335      4334      4337
      4336      4334      4337      4338      4337      4339      4338      4337      4340
      4339      4337      4340      4341      4343      4344      4341      4345      4346
      4341      4345      4347      4341      4345      4348      4341      4387      4384
      4341      4387      4388      4341      4387      4389      4342      4341      4343
      4342      4341      4345      4342      4341      4387      4343      4341      4345
      4343      4341      4387      4345      4341      4387      4345      4348      4349
      4345      4348      4379      4346      4345      4347      4346      4345      4348
      4347      4345      4348      4348      4349      4350      4348      4349      4351
      4348      4379      4377      4348      4379      4380      4348      4379      4384
      4349      4348      4379      4349      4351      4352      4349      4351      4353
      4349      4351      4354      4350      4349      4351      4351      4354      4355
      4351      4354      4356      4351      4354      4377      4352      4351      4353
      4352      4351      4354      4353      4351      4354      4354      4356      4357
      4354      4356      4358      4354      4356      4366      4354      4377      4374
      4354      4377      4378      4354      4377      4379      4355      4354      4356
      4355      4354      4377      4356      4354      4377      4356      4358      4359
      4356      4358      4360      4356      4358      4361      4356      4366      4364
      4356      4366      4367      4356      4366      4371      4357      4356      4358
      4357      4356      4366      4358      4356      4366      4358      4361      4362
      4358      4361      4363      4358      4361      4364      4359      4358      4360
      4359      4358      4361      4360      4358      4361      4361      4364      4365
      4361      4364      4366      4361      4364      4390      4362      4361      4363
      4362      4361      4364      4363      4361      4364      4364      4366      4367
      4364      4366      4371      4364      4390      4391      4364      4390      4392
      4364      4390      4396      4365      4364      4366      4365      4364      4390
      4366      4364      4390      4366      4367      4368      4366      4367      4369
      4366      4367      4370      4366      4371      4372      4366      4371      4373
      4366      4371      4374      4367      4366      4371      4368      4367      4369
      4368      4367      4370      4369      4367      4370      4371      4374      4375
      4371      4374      4376      4371      4374      4377      4372      4371      4373
      4372      4371      4374      4373      4371      4374      4374      4377      4378
      4374      4377      4379      4375      4374      4376      4375      4374      4377
      4376      4374      4377      4377      4379      4380      4377      4379      4384
      4378      4377      4379      4379      4380      4381      4379      4380      4382
      4379      4380      4383      4379      4384      4385      4379      4384      4386
      4379      4384      4387      4380      4379      4384      4381      4380      4382
      4381      4380      4383      4382      4380      4383      4384      4387      4388
      4384      4387      4389      4385      4384      4386      4385      4384      4387
      4386      4384      4387      4388      4387      4389      4390      4392      4393
      4390      4392      4394      4390      4392      4395      4390      4396      4397
      4390      4396      4398      4390      4396      4399      4391      4390      4392
      4391      4390      4396      4392      4390      4396      4393      4392      4394
      4393      4392      4395      4394      4392      4395      4396      4399      4400
      4396      4399      4401      4396      4399      4402      4397      4396      4398
      4397      4396      4399      4398      4396      4399      4399      4402      4403
      4399      4402      4404      4399      4402      4405      4400      4399      4401
      4400      4399      4402      4401      4399      4402      4402      4405      4406
      4402      4405      4407      4402      4405      4411      4403      4402      4404
      4403      4402      4405      4404      4402      4405      4405      4407      4408
      4405      4407      4409      4405      4407      4410      4405      4411      4412
      4405      4411      4413      4405      4411      4414      4406      4405      4407
      4406      4405      4411      4407      4405      4411      4408      4407      4409
      4408      4407      4410      4409      4407      4410      4412      4411      4413
      4412      4411      4414      4413      4411      4414      4415      4416      4417
      4415      4416      4418      4415      4416      4419      4415      4420      4421
      4415      4420      4422      4415      4420      4423      4415      4424      4425
      4415      4424      4426      4415      4424      4427      4415      4428      4429
      4415      4428      4430      4415      4428      4431      4416      4415      4420
      4416      4415      4424      4416      4415      4428      4417      4416      4418
      4417      4416      4419      4418      4416      4419      4420      4415      4424
      4420      4415      4428      4421      4420      4422      4421      4420      4423
      4422      4420      4423      4424      4415      4428      4425      4424      4426
      4425      4424      4427      4426      4424      4427      4428      4431      4432
      4428      4431      4433      4428      4431      4438      4429      4428      4430
      4429      4428      4431      4430      4428      4431      4431      4438      4434
      4432      4431      4433      4432      4431      4438      4433      4431      4438
      4434      4437      4439      4435      4434      4436      4435      4434      4437
      4435      4434      4438      4436      4434      4437      4436      4434      4438
      4437      4434      4438      4437      4439      4440      4437      4439      4441
      4437      4439      4444      4439      4444      4442      4439      4444      4445
      4439      4444      4446      4440      4439      4441      4440      4439      4444
      4441      4439      4444      4442      4444      4445      4442      4444      4446
      4442      4494      4495      4442      4494      4496      4443      4442      4444
      4443      4442      4494      4444      4442      4494      4444      4446      4447
      4444      4446      4448      4444      4446      4450      4445      4444      4446
      4446      4448      4449      4446      4450      4451      4446      4450      4452
      4447      4446      4448      4447      4446      4450      4448      4446      4450
      4450      4452      4453      4450      4452      4454      4451      4450      4452
      4452      4454      4455      4452      4454      4456      4452      4454      4457
      4453      4452      4454      4454      4457      4458      4454      4457      4459
      4454      4457      4460      4455      4454      4456      4455      4454      4457
      4456      4454      4457      4457      4460      4461      4457      4460      4462
      4457      4460      4463      4458      4457      4459      4458      4457      4460
      4459      4457      4460      4460      4463      4464      4460      4463      4465
      4460      4463      4466      4461      4460      4462      4461      4460      4463
      4462      4460      4463      4463      4466      4467      4463      4466      4468
      4463      4466      4469      4464      4463      4465      4464      4463      4466
      4465      4463      4466      4466      4469      4470      4466      4469      4471
      4466      4469      4472      4467      4466      4468      4467      4466      4469
      4468      4466      4469      4469      4472      4473      4469      4472      4474
      4469      4472      4475      4470      4469      4471      4470      4469      4472
      4471      4469      4472      4472      4475      4476      4472      4475      4477
      4472      4475      4478      4473      4472      4474      4473      4472      4475
      4474      4472      4475      4475      4478      4479      4475      4478      4480
      4475      4478      4481      4476      4475      4477      4476      4475      4478
      4477      4475      4478      4478      4481      4482      4478      4481      4483
      4478      4481      4484      4479      4478      4480      4479      4478      4481
      4480      4478      4481      4481      4484      4485      4481      4484      4486
      4481      4484      4487      4482      4481      4483      4482      4481      4484
      4483      4481      4484      4484      4487      4488      4484      4487      4489
      4484      4487      4490      4485      4484      4486      4485      4484      4487
      4486      4484      4487      4487      4490      4491      4487      4490      4492
      4487      4490      4493      4488      4487      4489      4488      4487      4490
      4489      4487      4490      4491      4490      4492      4491      4490      4493
      4492      4490      4493      4494      4496      4497      4494      4496      4498
      4494      4496      4499      4495      4494      4496      4496      4499      4500
      4496      4499      4501      4496      4499      4502      4497      4496      4498
      4497      4496      4499      4498      4496      4499      4499      4502      4503
      4499      4502      4504      4499      4502      4505      4500      4499      4501
      4500      4499      4502      4501      4499      4502      4502      4505      4506
      4502      4505      4507      4502      4505      4508      4503      4502      4504
      4503      4502      4505      4504      4502      4505      4505      4508      4509
      4505      4508      4510      4505      4508      4511      4506      4505      4507
      4506      4505      4508      4507      4505      4508      4508      4511      4512
      4508      4511      4513      4508      4511      4514      4509      4508      4510
      4509      4508      4511      4510      4508      4511      4511      4514      4515
      4511      4514      4516      4511      4514      4517      4512      4511      4513
      4512      4511      4514      4513      4511      4514      4514      4517      4518
      4514      4517      4519      4515      4514      4516      4515      4514      4517
      4516      4514      4517      4517      4519      4520      4517      4519      4521
      4518      4517      4519      4519      4521      4522      4519      4521      4523
      4519      4521      4524      4520      4519      4521      4521      4524      4525
      4521      4524      4526      4521      4524      4527      4522      4521      4523
      4522      4521      4524      4523      4521      4524      4524      4527      4528
      4524      4527      4529      4524      4527      4530      4525      4524      4526
      4525      4524      4527      4526      4524      4527      4527      4530      4531
      4527      4530      4532      4527      4530      4533      4528      4527      4529
      4528      4527      4530      4529      4527      4530      4530      4533      4534
      4530      4533      4535      4530      4533      4536      4531      4530      4532
      4531      4530      4533      4532      4530      4533      4533      4536      4537
      4533      4536      4538      4533      4536      4539      4534      4533      4535
      4534      4533      4536      4535      4533      4536      4536      4539      4540
      4536      4539      4541      4536      4539      4542      4537      4536      4538
      4537      4536      4539      4538      4536      4539      4539      4542      4543
      4539      4542      4544      4539      4542      4545      4540      4539      4541
      4540      4539      4542      4541      4539      4542      4543      4542      4544
      4543      4542      4545      4544      4542      4545      4546      4547      4548
      4546      4547      4549      4546      4547      4550      4546      4551      4552
      4546      4551      4553      4546      4551      4554      4546      4555      4556
      4546      4555      4557      4546      4555      4558      4546      4559      4560
      4546      4559      4561      4546      4559      4562      4547      4546      4551
      4547      4546      4555      4547      4546      4559      4548      4547      4549
      4548      4547      4550      4549      4547      4550      4551      4546      4555
      4551      4546      4559      4552      4551      4553      4552      4551      4554
      4553      4551      4554      4555      4546      4559      4556      4555      4557
      4556      4555      4558      4557      4555      4558      4559      4562      4563
      4559      4562      4564      4559      4562      4569      4560      4559      4561
      4560      4559      4562      4561      4559      4562      4562      4569      4565
      4563      4562      4564      4563      4562      4569      4564      4562      4569
      4565      4568      4570      4566      4565      4567      4566      4565      4568
      4566      4565      4569      4567      4565      4568      4567      4565      4569
      4568      4565      4569      4568      4570      4571      4568      4570      4572
      4568      4570      4575      4570      4575      4573      4570      4575      4576
      4570      4575      4577      4571      4570      4572      4571      4570      4575
      4572      4570      4575      4573      4575      4576      4573      4575      4577
      4573      4625      4626      4573      4625      4627      4574      4573      4575
      4574      4573      4625      4575      4573      4625      4575      4577      4578
      4575      4577      4579      4575      4577      4581      4576      4575      4577
      4577      4579      4580      4577      4581      4582      4577      4581      4583
      4578      4577      4579      4578      4577      4581      4579      4577      4581
      4581      4583      4584      4581      4583      4585      4582      4581      4583
      4583      4585      4586      4583      4585      4587      4583      4585      4588
      4584      4583      4585      4585      4588      4589      4585      4588      4590
      4585      4588      4591      4586      4585      4587      4586      4585      4588
      4587      4585      4588      4588      4591      4592      4588      4591      4593
      4588      4591      4594      4589      4588      4590      4589      4588      4591
      4590      4588      4591      4591      4594      4595      4591      4594      4596
      4591      4594      4597      4592      4591      4593      4592      4591      4594
      4593      4591      4594      4594      4597      4598      4594      4597      4599
      4594      4597      4600      4595      4594      4596      4595      4594      4597
      4596      4594      4597      4597      4600      4601      4597      4600      4602
      4597      4600      4603      4598      4597      4599      4598      4597      4600
      4599      4597      4600      4600      4603      4604      4600      4603      4605
      4600      4603      4606      4601      4600      4602      4601      4600      4603
      4602      4600      4603      4603      4606      4607      4603      4606      4608
      4603      4606      4609      4604      4603      4605      4604      4603      4606
      4605      4603      4606      4606      4609      4610      4606      4609      4611
      4606      4609      4612      4607      4606      4608      4607      4606      4609
      4608      4606      4609      4609      4612      4613      4609      4612      4614
      4609      4612      4615      4610      4609      4611      4610      4609      4612
      4611      4609      4612      4612      4615      4616      4612      4615      4617
      4612      4615      4618      4613      4612      4614      4613      4612      4615
      4614      4612      4615      4615      4618      4619      4615      4618      4620
      4615      4618      4621      4616      4615      4617      4616      4615      4618
      4617      4615      4618      4618      4621      4622      4618      4621      4623
      4618      4621      4624      4619      4618      4620      4619      4618      4621
      4620      4618      4621      4622      4621      4623      4622      4621      4624
      4623      4621      4624      4625      4627      4628      4625      4627      4629
      4625      4627      4630      4626      4625      4627      4627      4630      4631
      4627      4630      4632      4627      4630      4633      4628      4627      4629
      4628      4627      4630      4629      4627      4630      4630      4633      4634
      4630      4633      4635      4630      4633      4636      4631      4630      4632
      4631      4630      4633      4632      4630      4633      4633      4636      4637
      4633      4636      4638      4633      4636      4639      4634      4633      4635
      4634      4633      4636      4635      4633      4636      4636      4639      4640
      4636      4639      4641      4636      4639      4642      4637      4636      4638
      4637      4636      4639      4638      4636      4639      4639      4642      4643
      4639      4642      4644      4639      4642      4645      4640      4639      4641
      4640      4639      4642      4641      4639      4642      4642      4645      4646
      4642      4645      4647      4642      4645      4648      4643      4642      4644
      4643      4642      4645      4644      4642      4645      4645      4648      4649
      4645      4648      4650      4646      4645      4647      4646      4645      4648
      4647      4645      4648      4648      4650      4651      4648      4650      4652
      4649      4648      4650      4650      4652      4653      4650      4652      4654
      4650      4652      4655      4651      4650      4652      4652      4655      4656
      4652      4655      4657      4652      4655      4658      4653      4652      4654
      4653      4652      4655      4654      4652      4655      4655      4658      4659
      4655      4658      4660      4655      4658      4661      4656      4655      4657
      4656      4655      4658      4657      4655      4658      4658      4661      4662
      4658      4661      4663      4658      4661      4664      4659      4658      4660
      4659      4658      4661      4660      4658      4661      4661      4664      4665
      4661      4664      4666      4661      4664      4667      4662      4661      4663
      4662      4661      4664      4663      4661      4664      4664      4667      4668
      4664      4667      4669      4664      4667      4670      4665      4664      4666
      4665      4664      4667      4666      4664      4667      4667      4670      4671
      4667      4670      4672      4667      4670      4673      4668      4667      4669
      4668      4667      4670      4669      4667      4670      4670      4673      4674
      4670      4673      4675      4670      4673      4676      4671      4670      4672
      4671      4670      4673      4672      4670      4673      4674      4673      4675
      4674      4673      4676      4675      4673      4676      4677      4681      4682
      4677      4681      4683      4677      4681      4686      4678      4677      4679
      4678      4677      4680      4678      4677      4681      4679      4677      4680
      4679      4677      4681      4680      4677      4681      4681      4683      4684
      4681      4683      4685      4681      4686      4687      4681      4686      4688
      4681      4686      4692      4682      4681      4683      4682      4681      4686
      4683      4681      4686      4684      4683      4685      4686      4692      4689
      4687      4686      4688      4687      4686      4692      4688      4686      4692
      4689      4693      4694      4690      4689      4691      4690      4689      4692
      4690      4689      4693      4691      4689      4692      4691      4689      4693
      4692      4689      4693      4693      4694      4695      4693      4694      4696
      4693      4694      4697      4694      4697      4698      4694      4697      4699
      4694      4697      4705      4695      4694      4696      4695      4694      4697
      4696      4694      4697      4697      4699      4700      4697      4705      4706
      4697      4705      4707      4697      4705      4708      4698      4697      4699
      4698      4697      4705      4699      4697      4705      4699      4700      4701
      4699      4700      4702      4700      4702      4703      4700      4702      4704
      4700      4702      4714      4701      4700      4702      4702      4714      4715
      4702      4714      4716      4702      4714      4717      4703      4702      4704
      4703      4702      4714      4704      4702      4714      4705      4708      4709
      4706      4705      4707      4706      4705      4708      4707      4705      4708
      4708      4709      4710      4708      4709      4711      4709      4711      4712
      4709      4711      4713      4709      4711      4761      4710      4709      4711
      4711      4761      4762      4711      4761      4763      4711      4761      4764
      4712      4711      4713      4712      4711      4761      4713      4711      4761
      4714      4717      4718      4714      4717      4719      4714      4717      4720
      4715      4714      4716      4715      4714      4717      4716      4714      4717
      4717      4720      4721      4717      4720      4722      4718      4717      4719
      4718      4717      4720      4719      4717      4720      4720      4722      4723
      4720      4722      4724      4721      4720      4722      4722      4724      4725
      4722      4724      4726      4722      4724      4727      4723      4722      4724
      4724      4727      4728      4724      4727      4729      4725      4724      4726
      4725      4724      4727      4726      4724      4727      4727      4729      4730
      4727      4729      4731      4728      4727      4729      4729      4731      4732
      4729      4731      4733      4729      4731      4734      4730      4729      4731
      4731      4734      4735      4731      4734      4736      4732      4731      4733
      4732      4731      4734      4733      4731      4734      4734      4736      4737
      4734      4736      4738      4735      4734      4736      4736      4738      4739
      4736      4738      4740      4736      4738      4741      4737      4736      4738
      4738      4741      4742      4738      4741      4743      4739      4738      4740
      4739      4738      4741      4740      4738      4741      4741      4743      4744
      4741      4743      4745      4742      4741      4743      4743      4745      4746
      4743      4745      4747      4743      4745      4748      4744      4743      4745
      4745      4748      4749      4745      4748      4750      4745      4748      4751
      4746      4745      4747      4746      4745      4748      4747      4745      4748
      4748      4751      4752      4748      4751      4753      4748      4751      4754
      4749      4748      4750      4749      4748      4751      4750      4748      4751
      4751      4754      4755      4751      4754      4756      4751      4754      4757
      4752      4751      4753      4752      4751      4754      4753      4751      4754
      4754      4757      4758      4754      4757      4759      4754      4757      4760
      4755      4754      4756      4755      4754      4757      4756      4754      4757
      4758      4757      4759      4758      4757      4760      4759      4757      4760
      4761      4764      4765      4761      4764      4766      4761      4764      4767
      4762      4761      4763      4762      4761      4764      4763      4761      4764
      4764      4767      4768      4764      4767      4769      4764      4767      4770
      4765      4764      4766      4765      4764      4767      4766      4764      4767
      4767      4770      4771      4767      4770      4772      4767      4770      4773
      4768      4767      4769      4768      4767      4770      4769      4767      4770
      4770      4773      4774      4770      4773      4775      4770      4773      4776
      4771      4770      4772      4771      4770      4773      4772      4770      4773
      4773      4776      4777      4773      4776      4778      4773      4776      4779
      4774      4773      4775      4774      4773      4776      4775      4773      4776
      4776      4779      4780      4776      4779      4781      4776      4779      4782
      4777      4776      4778      4777      4776      4779      4778      4776      4779
      4779      4782      4783      4779      4782      4784      4779      4782      4785
      4780      4779      4781      4780      4779      4782      4781      4779      4782
      4782      4785      4786      4782      4785      4787      4782      4785      4788
      4783      4782      4784      4783      4782      4785      4784      4782      4785
      4785      4788      4789      4785      4788      4790      4785      4788      4791
      4786      4785      4787      4786      4785      4788      4787      4785      4788
      4788      4791      4792      4788      4791      4793      4788      4791      4794
      4789      4788      4790      4789      4788      4791      4790      4788      4791
      4791      4794      4795      4791      4794      4796      4791      4794      4797
      4792      4791      4793      4792      4791      4794      4793      4791      4794
      4794      4797      4798      4794      4797      4799      4794      4797      4800
      4795      4794      4796      4795      4794      4797      4796      4794      4797
      4797      4800      4801      4797      4800      4802      4797      4800      4803
      4798      4797      4799      4798      4797      4800      4799      4797      4800
      4800      4803      4804      4800      4803      4805      4800      4803      4806
      4801      4800      4802      4801      4800      4803      4802      4800      4803
      4803      4806      4807      4803      4806      4808      4803      4806      4809
      4804      4803      4805      4804      4803      4806      4805      4803      4806
      4807      4806      4808      4807      4806      4809      4808      4806      4809
      4810      4811      4812      4810      4811      4813      4810      4811      4814
      4810      4815      4816      4810      4815      4817      4810      4815      4818
      4810      4819      4820      4810      4819      4821      4810      4819      4822
      4810      4823      4824      4810      4823      4825      4810      4823      4826
      4811      4810      4815      4811      4810      4819      4811      4810      4823
      4812      4811      4813      4812      4811      4814      4813      4811      4814
      4815      4810      4819      4815      4810      4823      4816      4815      4817
      4816      4815      4818      4817      4815      4818      4819      4810      4823
      4820      4819      4821      4820      4819      4822      4821      4819      4822
      4823      4826      4827      4823      4826      4828      4823      4826      4833
      4824      4823      4825      4824      4823      4826      4825      4823      4826
      4826      4833      4829      4827      4826      4828      4827      4826      4833
      4828      4826      4833      4829      4832      4834      4830      4829      4831
      4830      4829      4832      4830      4829      4833      4831      4829      4832
      4831      4829      4833      4832      4829      4833      4832      4834      4835
      4832      4834      4836      4832      4834      4839      4834      4839      4837
      4834      4839      4840      4834      4839      4841      4835      4834      4836
      4835      4834      4839      4836      4834      4839      4837      4839      4840
      4837      4839      4841      4837      4889      4890      4837      4889      4891
      4838      4837      4839      4838      4837      4889      4839      4837      4889
      4839      4841      4842      4839      4841      4843      4839      4841      4845
      4840      4839      4841      4841      4843      4844      4841      4845      4846
      4841      4845      4847      4842      4841      4843      4842      4841      4845
      4843      4841      4845      4845      4847      4848      4845      4847      4849
      4846      4845      4847      4847      4849      4850      4847      4849      4851
      4847      4849      4852      4848      4847      4849      4849      4852      4853
      4849      4852      4854      4849      4852      4855      4850      4849      4851
      4850      4849      4852      4851      4849      4852      4852      4855      4856
      4852      4855      4857      4852      4855      4858      4853      4852      4854
      4853      4852      4855      4854      4852      4855      4855      4858      4859
      4855      4858      4860      4855      4858      4861      4856      4855      4857
      4856      4855      4858      4857      4855      4858      4858      4861      4862
      4858      4861      4863      4858      4861      4864      4859      4858      4860
      4859      4858      4861      4860      4858      4861      4861      4864      4865
      4861      4864      4866      4861      4864      4867      4862      4861      4863
      4862      4861      4864      4863      4861      4864      4864      4867      4868
      4864      4867      4869      4864      4867      4870      4865      4864      4866
      4865      4864      4867      4866      4864      4867      4867      4870      4871
      4867      4870      4872      4867      4870      4873      4868      4867      4869
      4868      4867      4870      4869      4867      4870      4870      4873      4874
      4870      4873      4875      4870      4873      4876      4871      4870      4872
      4871      4870      4873      4872      4870      4873      4873      4876      4877
      4873      4876      4878      4873      4876      4879      4874      4873      4875
      4874      4873      4876      4875      4873      4876      4876      4879      4880
      4876      4879      4881      4876      4879      4882      4877      4876      4878
      4877      4876      4879      4878      4876      4879      4879      4882      4883
      4879      4882      4884      4879      4882      4885      4880      4879      4881
      4880      4879      4882      4881      4879      4882      4882      4885      4886
      4882      4885      4887      4882      4885      4888      4883      4882      4884
      4883      4882      4885      4884      4882      4885      4886      4885      4887
      4886      4885      4888      4887      4885      4888      4889      4891      4892
      4889      4891      4893      4889      4891      4894      4890      4889      4891
      4891      4894      4895      4891      4894      4896      4891      4894      4897
      4892      4891      4893      4892      4891      4894      4893      4891      4894
      4894      4897      4898      4894      4897      4899      4894      4897      4900
      4895      4894      4896      4895      4894      4897      4896      4894      4897
      4897      4900      4901      4897      4900      4902      4897      4900      4903
      4898      4897      4899      4898      4897      4900      4899      4897      4900
      4900      4903      4904      4900      4903      4905      4900      4903      4906
      4901      4900      4902      4901      4900      4903      4902      4900      4903
      4903      4906      4907      4903      4906      4908      4903      4906      4909
      4904      4903      4905      4904      4903      4906      4905      4903      4906
      4906      4909      4910      4906      4909      4911      4906      4909      4912
      4907      4906      4908      4907      4906      4909      4908      4906      4909
      4909      4912      4913      4909      4912      4914      4910      4909      4911
      4910      4909      4912      4911      4909      4912      4912      4914      4915
      4912      4914      4916      4913      4912      4914      4914      4916      4917
      4914      4916      4918      4914      4916      4919      4915      4914      4916
      4916      4919      4920      4916      4919      4921      4916      4919      4922
      4917      4916      4918      4917      4916      4919      4918      4916      4919
      4919      4922      4923      4919      4922      4924      4919      4922      4925
      4920      4919      4921      4920      4919      4922      4921      4919      4922
      4922      4925      4926      4922      4925      4927      4922      4925      4928
      4923      4922      4924      4923      4922      4925      4924      4922      4925
      4925      4928      4929      4925      4928      4930      4925      4928      4931
      4926      4925      4927      4926      4925      4928      4927      4925      4928
      4928      4931      4932      4928      4931      4933      4928      4931      4934
      4929      4928      4930      4929      4928      4931      4930      4928      4931
      4931      4934      4935      4931      4934      4936      4931      4934      4937
      4932      4931      4933      4932      4931      4934      4933      4931      4934
      4934      4937      4938      4934      4937      4939      4934      4937      4940
      4935      4934      4936      4935      4934      4937      4936      4934      4937
      4938      4937      4939      4938      4937      4940      4939      4937      4940
      4941      4942      4943      4941      4942      4944      4941      4942      4945
      4941      4946      4947      4941      4946      4948      4941      4946      4949
      4941      4950      4951      4941      4950      4952      4941      4950      4953
      4941      4954      4955      4941      4954      4956      4941      4954      4957
      4942      4941      4946      4942      4941      4950      4942      4941      4954
      4943      4942      4944      4943      4942      4945      4944      4942      4945
      4946      4941      4950      4946      4941      4954      4947      4946      4948
      4947      4946      4949      4948      4946      4949      4950      4941      4954
      4951      4950      4952      4951      4950      4953      4952      4950      4953
      4954      4957      4958      4954      4957      4959      4954      4957      4963
      4955      4954      4956      4955      4954      4957      4956      4954      4957
      4957      4963      4960      4958      4957      4959      4958      4957      4963
      4959      4957      4963      4960      4964      4965      4961      4960      4962
      4961      4960      4963      4961      4960      4964      4962      4960      4963
      4962      4960      4964      4963      4960      4964      4964      4965      4966
      4964      4965      4967      4964      4965      4968      4965      4968      4969
      4965      4968      4970      4965      4968      4976      4966      4965      4967
      4966      4965      4968      4967      4965      4968      4968      4970      4971
      4968      4976      4977      4968      4976      4978      4968      4976      4979
      4969      4968      4970      4969      4968      4976      4970      4968      4976
      4970      4971      4972      4970      4971      4973      4971      4973      4974
      4971      4973      4975      4971      4973      4985      4972      4971      4973
      4973      4985      4986      4973      4985      4987      4973      4985      4988
      4974      4973      4975      4974      4973      4985      4975      4973      4985
      4976      4979      4980      4977      4976      4978      4977      4976      4979
      4978      4976      4979      4979      4980      4981      4979      4980      4982
      4980      4982      4983      4980      4982      4984      4980      4982      5030
      4981      4980      4982      4982      5030      5031      4982      5030      5032
      4982      5030      5033      4983      4982      4984      4983      4982      5030
      4984      4982      5030      4985      4988      4989      4985      4988      4990
      4985      4988      4991      4986      4985      4987      4986      4985      4988
      4987      4985      4988      4988      4991      4992      4988      4991      4993
      4988      4991      4994      4989      4988      4990      4989      4988      4991
      4990      4988      4991      4991      4994      4995      4991      4994      4996
      4991      4994      4997      4992      4991      4993      4992      4991      4994
      4993      4991      4994      4994      4997      4998      4994      4997      4999
      4994      4997      5000      4995      4994      4996      4995      4994      4997
      4996      4994      4997      4997      5000      5001      4997      5000      5002
      4997      5000      5003      4998      4997      4999      4998      4997      5000
      4999      4997      5000      5000      5003      5004      5000      5003      5005
      5001      5000      5002      5001      5000      5003      5002      5000      5003
      5003      5005      5006      5003      5005      5007      5004      5003      5005
      5005      5007      5008      5005      5007      5009      5005      5007      5010
      5006      5005      5007      5007      5010      5011      5007      5010      5012
      5008      5007      5009      5008      5007      5010      5009      5007      5010
      5010      5012      5013      5010      5012      5014      5011      5010      5012
      5012      5014      5015      5012      5014      5016      5012      5014      5017
      5013      5012      5014      5014      5017      5018      5014      5017      5019
      5014      5017      5020      5015      5014      5016      5015      5014      5017
      5016      5014      5017      5017      5020      5021      5017      5020      5022
      5017      5020      5023      5018      5017      5019      5018      5017      5020
      5019      5017      5020      5020      5023      5024      5020      5023      5025
      5020      5023      5026      5021      5020      5022      5021      5020      5023
      5022      5020      5023      5023      5026      5027      5023      5026      5028
      5023      5026      5029      5024      5023      5025      5024      5023      5026
      5025      5023      5026      5027      5026      5028      5027      5026      5029
      5028      5026      5029      5030      5033      5034      5030      5033      5035
      5030      5033      5036      5031      5030      5032      5031      5030      5033
      5032      5030      5033      5033      5036      5037      5033      5036      5038
      5033      5036      5039      5034      5033      5035      5034      5033      5036
      5035      5033      5036      5036      5039      5040      5036      5039      5041
      5036      5039      5042      5037      5036      5038      5037      5036      5039
      5038      5036      5039      5039      5042      5043      5039      5042      5044
      5039      5042      5045      5040      5039      5041      5040      5039      5042
      5041      5039      5042      5042      5045      5046      5042      5045      5047
      5042      5045      5048      5043      5042      5044      5043      5042      5045
      5044      5042      5045      5045      5048      5049      5045      5048      5050
      5045      5048      5051      5046      5045      5047      5046      5045      5048
      5047      5045      5048      5048      5051      5052      5048      5051      5053
      5048      5051      5054      5049      5048      5050      5049      5048      5051
      5050      5048      5051      5051      5054      5055      5051      5054      5056
      5051      5054      5057      5052      5051      5053      5052      5051      5054
      5053      5051      5054      5054      5057      5058      5054      5057      5059
      5054      5057      5060      5055      5054      5056      5055      5054      5057
      5056      5054      5057      5057      5060      5061      5057      5060      5062
      5057      5060      5063      5058      5057      5059      5058      5057      5060
      5059      5057      5060      5060      5063      5064      5060      5063      5065
      5060      5063      5066      5061      5060      5062      5061      5060      5063
      5062      5060      5063      5063      5066      5067      5063      5066      5068
      5063      5066      5069      5064      5063      5065      5064      5063      5066
      5065      5063      5066      5066      5069      5070      5066      5069      5071
      5066      5069      5072      5067      5066      5068      5067      5066      5069
      5068      5066      5069      5069      5072      5073      5069      5072      5074
      5069      5072      5075      5070      5069      5071      5070      5069      5072
      5071      5069      5072      5072      5075      5076      5072      5075      5077
      5072      5075      5078      5073      5072      5074      5073      5072      5075
      5074      5072      5075      5076      5075      5077      5076      5075      5078
      5077      5075      5078      5079      5080      5081      5079      5080      5082
      5079      5080      5083      5079      5084      5085      5079      5084      5086
      5079      5084      5087      5079      5088      5089      5079      5088      5090
      5079      5088      5091      5079      5092      5093      5079      5092      5094
      5079      5092      5095      5080      5079      5084      5080      5079      5088
      5080      5079      5092      5081      5080      5082      5081      5080      5083
      5082      5080      5083      5084      5079      5088      5084      5079      5092
      5085      5084      5086      5085      5084      5087      5086      5084      5087
      5088      5079      5092      5089      5088      5090      5089      5088      5091
      5090      5088      5091      5092      5095      5096      5092      5095      5097
      5092      5095      5102      5093      5092      5094      5093      5092      5095
      5094      5092      5095      5095      5102      5098      5096      5095      5097
      5096      5095      5102      5097      5095      5102      5098      5101      5103
      5099      5098      5100      5099      5098      5101      5099      5098      5102
      5100      5098      5101      5100      5098      5102      5101      5098      5102
      5101      5103      5104      5101      5103      5105      5101      5103      5108
      5103      5108      5106      5103      5108      5109      5103      5108      5110
      5104      5103      5105      5104      5103      5108      5105      5103      5108
      5106      5108      5109      5106      5108      5110      5106      5158      5159
      5106      5158      5160      5107      5106      5108      5107      5106      5158
      5108      5106      5158      5108      5110      5111      5108      5110      5112
      5108      5110      5114      5109      5108      5110      5110      5112      5113
      5110      5114      5115      5110      5114      5116      5111      5110      5112
      5111      5110      5114      5112      5110      5114      5114      5116      5117
      5114      5116      5118      5115      5114      5116      5116      5118      5119
      5116      5118      5120      5116      5118      5121      5117      5116      5118
      5118      5121      5122      5118      5121      5123      5118      5121      5124
      5119      5118      5120      5119      5118      5121      5120      5118      5121
      5121      5124      5125      5121      5124      5126      5121      5124      5127
      5122      5121      5123      5122      5121      5124      5123      5121      5124
      5124      5127      5128      5124      5127      5129      5124      5127      5130
      5125      5124      5126      5125      5124      5127      5126      5124      5127
      5127      5130      5131      5127      5130      5132      5127      5130      5133
      5128      5127      5129      5128      5127      5130      5129      5127      5130
      5130      5133      5134      5130      5133      5135      5130      5133      5136
      5131      5130      5132      5131      5130      5133      5132      5130      5133
      5133      5136      5137      5133      5136      5138      5133      5136      5139
      5134      5133      5135      5134      5133      5136      5135      5133      5136
      5136      5139      5140      5136      5139      5141      5136      5139      5142
      5137      5136      5138      5137      5136      5139      5138      5136      5139
      5139      5142      5143      5139      5142      5144      5139      5142      5145
      5140      5139      5141      5140      5139      5142      5141      5139      5142
      5142      5145      5146      5142      5145      5147      5142      5145      5148
      5143      5142      5144      5143      5142      5145      5144      5142      5145
      5145      5148      5149      5145      5148      5150      5145      5148      5151
      5146      5145      5147      5146      5145      5148      5147      5145      5148
      5148      5151      5152      5148      5151      5153      5148      5151      5154
      5149      5148      5150      5149      5148      5151      5150      5148      5151
      5151      5154      5155      5151      5154      5156      5151      5154      5157
      5152      5151      5153      5152      5151      5154      5153      5151      5154
      5155      5154      5156      5155      5154      5157      5156      5154      5157
      5158      5160      5161      5158      5160      5162      5158      5160      5163
      5159      5158      5160      5160      5163      5164      5160      5163      5165
      5160      5163      5166      5161      5160      5162      5161      5160      5163
      5162      5160      5163      5163      5166      5167      5163      5166      5168
      5163      5166      5169      5164      5163      5165      5164      5163      5166
      5165      5163      5166      5166      5169      5170      5166      5169      5171
      5166      5169      5172      5167      5166      5168      5167      5166      5169
      5168      5166      5169      5169      5172      5173      5169      5172      5174
      5169      5172      5175      5170      5169      5171      5170      5169      5172
      5171      5169      5172      5172      5175      5176      5172      5175      5177
      5172      5175      5178      5173      5172      5174      5173      5172      5175
      5174      5172      5175      5175      5178      5179      5175      5178      5180
      5175      5178      5181      5176      5175      5177      5176      5175      5178
      5177      5175      5178      5178      5181      5182      5178      5181      5183
      5179      5178      5180      5179      5178      5181      5180      5178      5181
      5181      5183      5184      5181      5183      5185      5182      5181      5183
      5183      5185      5186      5183      5185      5187      5183      5185      5188
      5184      5183      5185      5185      5188      5189      5185      5188      5190
      5185      5188      5191      5186      5185      5187      5186      5185      5188
      5187      5185      5188      5188      5191      5192      5188      5191      5193
      5188      5191      5194      5189      5188      5190      5189      5188      5191
      5190      5188      5191      5191      5194      5195      5191      5194      5196
      5191      5194      5197      5192      5191      5193      5192      5191      5194
      5193      5191      5194      5194      5197      5198      5194      5197      5199
      5194      5197      5200      5195      5194      5196      5195      5194      5197
      5196      5194      5197      5197      5200      5201      5197      5200      5202
      5197      5200      5203      5198      5197      5199      5198      5197      5200
      5199      5197      5200      5200      5203      5204      5200      5203      5205
      5200      5203      5206      5201      5200      5202      5201      5200      5203
      5202      5200      5203      5203      5206      5207      5203      5206      5208
      5203      5206      5209      5204      5203      5205      5204      5203      5206
      5205      5203      5206      5207      5206      5208      5207      5206      5209
      5208      5206      5209      5210      5211      5212      5210      5211      5213
      5210      5211      5214      5210      5215      5216      5210      5215      5217
      5210      5215      5218      5210      5219      5220      5210      5219      5221
      5210      5219      5222      5210      5223      5224      5210      5223      5225
      5210      5223      5226      5211      5210      5215      5211      5210      5219
      5211      5210      5223      5212      5211      5213      5212      5211      5214
      5213      5211      5214      5215      5210      5219      5215      5210      5223
      5216      5215      5217      5216      5215      5218      5217      5215      5218
      5219      5210      5223      5220      5219      5221      5220      5219      5222
      5221      5219      5222      5223      5226      5227      5223      5226      5228
      5223      5226      5233      5224      5223      5225      5224      5223      5226
      5225      5223      5226      5226      5233      5229      5227      5226      5228
      5227      5226      5233      5228      5226      5233      5229      5232      5234
      5230      5229      5231      5230      5229      5232      5230      5229      5233
      5231      5229      5232      5231      5229      5233      5232      5229      5233
      5232      5234      5235      5232      5234      5236      5232      5234      5239
      5234      5239      5237      5234      5239      5240      5234      5239      5241
      5235      5234      5236      5235      5234      5239      5236      5234      5239
      5237      5239      5240      5237      5239      5241      5237      5289      5290
      5237      5289      5291      5238      5237      5239      5238      5237      5289
      5239      5237      5289      5239      5241      5242      5239      5241      5243
      5239      5241      5245      5240      5239      5241      5241      5243      5244
      5241      5245      5246      5241      5245      5247      5242      5241      5243
      5242      5241      5245      5243      5241      5245      5245      5247      5248
      5245      5247      5249      5246      5245      5247      5247      5249      5250
      5247      5249      5251      5247      5249      5252      5248      5247      5249
      5249      5252      5253      5249      5252      5254      5249      5252      5255
      5250      5249      5251      5250      5249      5252      5251      5249      5252
      5252      5255      5256      5252      5255      5257      5252      5255      5258
      5253      5252      5254      5253      5252      5255      5254      5252      5255
      5255      5258      5259      5255      5258      5260      5255      5258      5261
      5256      5255      5257      5256      5255      5258      5257      5255      5258
      5258      5261      5262      5258      5261      5263      5258      5261      5264
      5259      5258      5260      5259      5258      5261      5260      5258      5261
      5261      5264      5265      5261      5264      5266      5261      5264      5267
      5262      5261      5263      5262      5261      5264      5263      5261      5264
      5264      5267      5268      5264      5267      5269      5264      5267      5270
      5265      5264      5266      5265      5264      5267      5266      5264      5267
      5267      5270      5271      5267      5270      5272      5267      5270      5273
      5268      5267      5269      5268      5267      5270      5269      5267      5270
      5270      5273      5274      5270      5273      5275      5270      5273      5276
      5271      5270      5272      5271      5270      5273      5272      5270      5273
      5273      5276      5277      5273      5276      5278      5273      5276      5279
      5274      5273      5275      5274      5273      5276      5275      5273      5276
      5276      5279      5280      5276      5279      5281      5276      5279      5282
      5277      5276      5278      5277      5276      5279      5278      5276      5279
      5279      5282      5283      5279      5282      5284      5279      5282      5285
      5280      5279      5281      5280      5279      5282      5281      5279      5282
      5282      5285      5286      5282      5285      5287      5282      5285      5288
      5283      5282      5284      5283      5282      5285      5284      5282      5285
      5286      5285      5287      5286      5285      5288      5287      5285      5288
      5289      5291      5292      5289      5291      5293      5289      5291      5294
      5290      5289      5291      5291      5294      5295      5291      5294      5296
      5291      5294      5297      5292      5291      5293      5292      5291      5294
      5293      5291      5294      5294      5297      5298      5294      5297      5299
      5294      5297      5300      5295      5294      5296      5295      5294      5297
      5296      5294      5297      5297      5300      5301      5297      5300      5302
      5297      5300      5303      5298      5297      5299      5298      5297      5300
      5299      5297      5300      5300      5303      5304      5300      5303      5305
      5300      5303      5306      5301      5300      5302      5301      5300      5303
      5302      5300      5303      5303      5306      5307      5303      5306      5308
      5303      5306      5309      5304      5303      5305      5304      5303      5306
      5305      5303      5306      5306      5309      5310      5306      5309      5311
      5306      5309      5312      5307      5306      5308      5307      5306      5309
      5308      5306      5309      5309      5312      5313      5309      5312      5314
      5310      5309      5311      5310      5309      5312      5311      5309      5312
      5312      5314      5315      5312      5314      5316      5313      5312      5314
      5314      5316      5317      5314      5316      5318      5314      5316      5319
      5315      5314      5316      5316      5319      5320      5316      5319      5321
      5316      5319      5322      5317      5316      5318      5317      5316      5319
      5318      5316      5319      5319      5322      5323      5319      5322      5324
      5319      5322      5325      5320      5319      5321      5320      5319      5322
      5321      5319      5322      5322      5325      5326      5322      5325      5327
      5322      5325      5328      5323      5322      5324      5323      5322      5325
      5324      5322      5325      5325      5328      5329      5325      5328      5330
      5325      5328      5331      5326      5325      5327      5326      5325      5328
      5327      5325      5328      5328      5331      5332      5328      5331      5333
      5328      5331      5334      5329      5328      5330      5329      5328      5331
      5330      5328      5331      5331      5334      5335      5331      5334      5336
      5331      5334      5337      5332      5331      5333      5332      5331      5334
      5333      5331      5334      5334      5337      5338      5334      5337      5339
      5334      5337      5340      5335      5334      5336      5335      5334      5337
      5336      5334      5337      5338      5337      5339      5338      5337      5340
      5339      5337      5340      5341      5343      5344      5341      5345      5346
      5341      5345      5347      5341      5345      5348      5341      5387      5384
      5341      5387      5388      5341      5387      5389      5342      5341      5343
      5342      5341      5345      5342      5341      5387      5343      5341      5345
      5343      5341      5387      5345      5341      5387      5345      5348      5349
      5345      5348      5379      5346      5345      5347      5346      5345      5348
      5347      5345      5348      5348      5349      5350      5348      5349      5351
      5348      5379      5377      5348      5379      5380      5348      5379      5384
      5349      5348      5379      5349      5351      5352      5349      5351      5353
      5349      5351      5354      5350      5349      5351      5351      5354      5355
      5351      5354      5356      5351      5354      5377      5352      5351      5353
      5352      5351      5354      5353      5351      5354      5354      5356      5357
      5354      5356      5358      5354      5356      5366      5354      5377      5374
      5354      5377      5378      5354      5377      5379      5355      5354      5356
      5355      5354      5377      5356      5354      5377      5356      5358      5359
      5356      5358      5360      5356      5358      5361      5356      5366      5364
      5356      5366      5367      5356      5366      5371      5357      5356      5358
      5357      5356      5366      5358      5356      5366      5358      5361      5362
      5358      5361      5363      5358      5361      5364      5359      5358      5360
      5359      5358      5361      5360      5358      5361      5361      5364      5365
      5361      5364      5366      5361      5364      5390      5362      5361      5363
      5362      5361      5364      5363      5361      5364      5364      5366      5367
      5364      5366      5371      5364      5390      5391      5364      5390      5392
      5364      5390      5396      5365      5364      5366      5365      5364      5390
      5366      5364      5390      5366      5367      5368      5366      5367      5369
      5366      5367      5370      5366      5371      5372      5366      5371      5373
      5366      5371      5374      5367      5366      5371      5368      5367      5369
      5368      5367      5370      5369      5367      5370      5371      5374      5375
      5371      5374      5376      5371      5374      5377      5372      5371      5373
      5372      5371      5374      5373      5371      5374      5374      5377      5378
      5374      5377      5379      5375      5374      5376      5375      5374      5377
      5376      5374      5377      5377      5379      5380      5377      5379      5384
      5378      5377      5379      5379      5380      5381      5379      5380      5382
      5379      5380      5383      5379      5384      5385      5379      5384      5386
      5379      5384      5387      5380      5379      5384      5381      5380      5382
      5381      5380      5383      5382      5380      5383      5384      5387      5388
      5384      5387      5389      5385      5384      5386      5385      5384      5387
      5386      5384      5387      5388      5387      5389      5390      5392      5393
      5390      5392      5394      5390      5392      5395      5390      5396      5397
      5390      5396      5398      5390      5396      5399      5391      5390      5392
      5391      5390      5396      5392      5390      5396      5393      5392      5394
      5393      5392      5395      5394      5392      5395      5396      5399      5400
      5396      5399      5401      5396      5399      5402      5397      5396      5398
      5397      5396      5399      5398      5396      5399      5399      5402      5403
      5399      5402      5404      5399      5402      5405      5400      5399      5401
      5400      5399      5402      5401      5399      5402      5402      5405      5406
      5402      5405      5407      5402      5405      5411      5403      5402      5404
      5403      5402      5405      5404      5402      5405      5405      5407      5408
      5405      5407      5409      5405      5407      5410      5405      5411      5412
      5405      5411      5413      5405      5411      5414      5406      5405      5407
      5406      5405      5411      5407      5405      5411      5408      5407      5409
      5408      5407      5410      5409      5407      5410      5412      5411      5413
      5412      5411      5414      5413      5411      5414      5415      5419      5420
      5415      5419      5421      5415      5419      5422      5416      5415      5417
      5416      5415      5418      5416      5415      5419      5417      5415      5418
      5417      5415      5419      5418      5415      5419      5419      5422      5423
      5419      5422      5424      5419      5422      5428      5420      5419      5421
      5420      5419      5422      5421      5419      5422      5422      5428      5425
      5423      5422      5424      5423      5422      5428      5424      5422      5428
      5425      5429      5430      5426      5425      5427      5426      5425      5428
      5426      5425      5429      5427      5425      5428      5427      5425      5429
      5428      5425      5429      5429      5430      5431      5429      5430      5432
      5429      5430      5433      5430      5433      5434      5430      5433      5435
      5430      5433      5441      5431      5430      5432      5431      5430      5433
      5432      5430      5433      5433      5435      5436      5433      5441      5442
      5433      5441      5443      5433      5441      5444      5434      5433      5435
      5434      5433      5441      5435      5433      5441      5435      5436      5437
      5435      5436      5438      5436      5438      5439      5436      5438      5440
      5436      5438      5450      5437      5436      5438      5438      5450      5451
      5438      5450      5452      5438      5450      5453      5439      5438      5440
      5439      5438      5450      5440      5438      5450      5441      5444      5445
      5442      5441      5443      5442      5441      5444      5443      5441      5444
      5444      5445      5446      5444      5445      5447      5445      5447      5448
      5445      5447      5449      5445      5447      5497      5446      5445      5447
      5447      5497      5498      5447      5497      5499      5447      5497      5500
      5448      5447      5449      5448      5447      5497      5449      5447      5497
      5450      5453      5454      5450      5453      5455      5450      5453      5456
      5451      5450      5452      5451      5450      5453      5452      5450      5453
      5453      5456      5457      5453      5456      5458      5453      5456      5459
      5454      5453      5455      5454      5453      5456      5455      5453      5456
      5456      5459      5460      5456      5459      5461      5456      5459      5462
      5457      5456      5458      5457      5456      5459      5458      5456      5459
      5459      5462      5463      5459      5462      5464      5459      5462      5465
      5460      5459      5461      5460      5459      5462      5461      5459      5462
      5462      5465      5466      5462      5465      5467      5462      5465      5468
      5463      5462      5464      5463      5462      5465      5464      5462      5465
      5465      5468      5469      5465      5468      5470      5466      5465      5467
      5466      5465      5468      5467      5465      5468      5468      5470      5471
      5468      5470      5472      5469      5468      5470      5470      5472      5473
      5470      5472      5474      5470      5472      5475      5471      5470      5472
      5472      5475      5476      5472      5475      5477      5472      5475      5478
      5473      5472      5474      5473      5472      5475      5474      5472      5475
      5475      5478      5479      5475      5478      5480      5475      5478      5481
      5476      5475      5477      5476      5475      5478      5477      5475      5478
      5478      5481      5482      5478      5481      5483      5478      5481      5484
      5479      5478      5480      5479      5478      5481      5480      5478      5481
      5481      5484      5485      5481      5484      5486      5481      5484      5487
      5482      5481      5483      5482      5481      5484      5483      5481      5484
      5484      5487      5488      5484      5487      5489      5484      5487      5490
      5485      5484      5486      5485      5484      5487      5486      5484      5487
      5487      5490      5491      5487      5490      5492      5487      5490      5493
      5488      5487      5489      5488      5487      5490      5489      5487      5490
      5490      5493      5494      5490      5493      5495      5490      5493      5496
      5491      5490      5492      5491      5490      5493      5492      5490      5493
      5494      5493      5495      5494      5493      5496      5495      5493      5496
      5497      5500      5501      5497      5500      5502      5497      5500      5503
      5498      5497      5499      5498      5497      5500      5499      5497      5500
      5500      5503      5504      5500      5503      5505      5500      5503      5506
      5501      5500      5502      5501      5500      5503      5502      5500      5503
      5503      5506      5507      5503      5506      5508      5503      5506      5509
      5504      5503      5505      5504      5503      5506      5505      5503      5506
      5506      5509      5510      5506      5509      5511      5506      5509      5512
      5507      5506      5508      5507      5506      5509      5508      5506      5509
      5509      5512      5513      5509      5512      5514      5509      5512      5515
      5510      5509      5511      5510      5509      5512      5511      5509      5512
      5512      5515      5516      5512      5515      5517      5512      5515      5518
      5513      5512      5514      5513      5512      5515      5514      5512      5515
      5515      5518      5519      5515      5518      5520      5515      5518      5521
      5516      5515      5517      5516      5515      5518      5517      5515      5518
      5518      5521      5522      5518      5521      5523      5518      5521      5524
      5519      5518      5520      5519      5518      5521      5520      5518      5521
      5521      5524      5525      5521      5524      5526      5521      5524      5527
      5522      5521      5523      5522      5521      5524      5523      5521      5524
      5524      5527      5528      5524      5527      5529      5524      5527      5530
      5525      5524      5526      5525      5524      5527      5526      5524      5527
      5527      5530      5531      5527      5530      5532      5527      5530      5533
      5528      5527      5529      5528      5527      5530      5529      5527      5530
      5530      5533      5534      5530      5533      5535      5530      5533      5536
      5531      5530      5532      5531      5530      5533      5532      5530      5533
      5533      5536      5537      5533      5536      5538      5533      5536      5539
      5534      5533      5535      5534      5533      5536      5535      5533      5536
      5536      5539      5540      5536      5539      5541      5536      5539      5542
      5537      5536      5538      5537      5536      5539      5538      5536      5539
      5539      5542      5543      5539      5542      5544      5539      5542      5545
      5540      5539      5541      5540      5539      5542      5541      5539      5542
      5543      5542      5544      5543      5542      5545      5544      5542      5545
      5546      5548      5549      5546      5550      5551      5546      5550      5552
      5546      5550      5553      5546      5592      5589      5546      5592      5593
      5546      5592      5594      5547      5546      5548      5547      5546      5550
      5547      5546      5592      5548      5546      5550      5548      5546      5592
      5550      5546      5592      5550      5553      5554      5550      5553      5584
      5551      5550      5552      5551      5550      5553      5552      5550      5553
      5553      5554      5555      5553      5554      5556      5553      5584      5582
      5553      5584      5585      5553      5584      5589      5554      5553      5584
      5554      5556      5557      5554      5556      5558      5554      5556      5559
      5555      5554      5556      5556      5559      5560      5556      5559      5561
      5556      5559      5582      5557      5556      5558      5557      5556      5559
      5558      5556      5559      5559      5561      5562      5559      5561      5563
      5559      5561      5571      5559      5582      5579      5559      5582      5583
      5559      5582      5584      5560      5559      5561      5560      5559      5582
      5561      5559      5582      5561      5563      5564      5561      5563      5565
      5561      5563      5566      5561      5571      5569      5561      5571      5572
      5561      5571      5576      5562      5561      5563      5562      5561      5571
      5563      5561      5571      5563      5566      5567      5563      5566      5568
      5563      5566      5569      5564      5563      5565      5564      5563      5566
      5565      5563      5566      5566      5569      5570      5566      5569      5571
      5566      5569      5595      5567      5566      5568      5567      5566      5569
      5568      5566      5569      5569      5571      5572      5569      5571      5576
      5569      5595      5596      5569      5595      5597      5569      5595      5601
      5570      5569      5571      5570      5569      5595      5571      5569      5595
      5571      5572      5573      5571      5572      5574      5571      5572      5575
      5571      5576      5577      5571      5576      5578      5571      5576      5579
      5572      5571      5576      5573      5572      5574      5573      5572      5575
      5574      5572      5575      5576      5579      5580      5576      5579      5581
      5576      5579      5582      5577      5576      5578      5577      5576      5579
      5578      5576      5579      5579      5582      5583      5579      5582      5584
      5580      5579      5581      5580      5579      5582      5581      5579      5582
      5582      5584      5585      5582      5584      5589      5583      5582      5584
      5584      5585      5586      5584      5585      5587      5584      5585      5588
      5584      5589      5590      5584      5589      5591      5584      5589      5592
      5585      5584      5589      5586      5585      5587      5586      5585      5588
      5587      5585      5588      5589      5592      5593      5589      5592      5594
      5590      5589      5591      5590      5589      5592      5591      5589      5592
      5593      5592      5594      5595      5597      5598      5595      5597      5599
      5595      5597      5600      5595      5601      5602      5595      5601      5603
      5595      5601      5604      5596      5595      5597      5596      5595      5601
      5597      5595      5601      5598      5597      5599      5598      5597      5600
      5599      5597      5600      5601      5604      5605      5601      5604      5606
      5601      5604      5607      5602      5601      5603      5602      5601      5604
      5603      5601      5604      5604      5607      5608      5604      5607      5609
      5604      5607      5610      5605      5604      5606      5605      5604      5607
      5606      5604      5607      5607      5610      5611      5607      5610      5612
      5607      5610      5616      5608      5607      5609      5608      5607      5610
      5609      5607      5610      5610      5612      5613      5610      5612      5614
      5610      5612      5615      5610      5616      5617      5610      5616      5618
      5610      5616      5619      5611      5610      5612      5611      5610      5616
      5612      5610      5616      5613      5612      5614      5613      5612      5615
      5614      5612      5615      5617      5616      5618      5617      5616      5619
      5618      5616      5619      5620      5624      5625      5620      5624      5626
      5620      5624      5627      5621      5620      5622      5621      5620      5623
      5621      5620      5624      5622      5620      5623      5622      5620      5624
      5623      5620      5624      5624      5627      5628      5624      5627      5629
      5624      5627      5633      5625      5624      5626      5625      5624      5627
      5626      5624      5627      5627      5633      5630      5628      5627      5629
      5628      5627      5633      5629      5627      5633      5630      5634      5635
      5631      5630      5632      5631      5630      5633      5631      5630      5634
      5632      5630      5633      5632      5630      5634      5633      5630      5634
      5634      5635      5636      5634      5635      5637      5634      5635      5638
      5635      5638      5639      5635      5638      5640      5635      5638      5646
      5636      5635      5637      5636      5635      5638      5637      5635      5638
      5638      5640      5641      5638      5646      5647      5638      5646      5648
      5638      5646      5649      5639      5638      5640      5639      5638      5646
      5640      5638      5646      5640      5641      5642      5640      5641      5643
      5641      5643      5644      5641      5643      5645      5641      5643      5655
      5642      5641      5643      5643      5655      5656      5643      5655      5657
      5643      5655      5658      5644      5643      5645      5644      5643      5655
      5645      5643      5655      5646      5649      5650      5647      5646      5648
      5647      5646      5649      5648      5646      5649      5649      5650      5651
      5649      5650      5652      5650      5652      5653      5650      5652      5654
      5650      5652      5702      5651      5650      5652      5652      5702      5703
      5652      5702      5704      5652      5702      5705      5653      5652      5654
      5653      5652      5702      5654      5652      5702      5655      5658      5659
      5655      5658      5660      5655      5658      5661      5656      5655      5657
      5656      5655      5658      5657      5655      5658      5658      5661      5662
      5658      5661      5663      5659      5658      5660      5659      5658      5661
      5660      5658      5661      5661      5663      5664      5661      5663      5665
      5662      5661      5663      5663      5665      5666      5663      5665      5667
      5663      5665      5668      5664      5663      5665      5665      5668      5669
      5665      5668      5670      5666      5665      5667      5666      5665      5668
      5667      5665      5668      5668      5670      5671      5668      5670      5672
      5669      5668      5670      5670      5672      5673      5670      5672      5674
      5670      5672      5675      5671      5670      5672      5672      5675      5676
      5672      5675      5677      5673      5672      5674      5673      5672      5675
      5674      5672      5675      5675      5677      5678      5675      5677      5679
      5676      5675      5677      5677      5679      5680      5677      5679      5681
      5677      5679      5682      5678      5677      5679      5679      5682      5683
      5679      5682      5684      5680      5679      5681      5680      5679      5682
      5681      5679      5682      5682      5684      5685      5682      5684      5686
      5683      5682      5684      5684      5686      5687      5684      5686      5688
      5684      5686      5689      5685      5684      5686      5686      5689      5690
      5686      5689      5691      5686      5689      5692      5687      5686      5688
      5687      5686      5689      5688      5686      5689      5689      5692      5693
      5689      5692      5694      5689      5692      5695      5690      5689      5691
      5690      5689      5692      5691      5689      5692      5692      5695      5696
      5692      5695      5697      5692      5695      5698      5693      5692      5694
      5693      5692      5695      5694      5692      5695      5695      5698      5699
      5695      5698      5700      5695      5698      5701      5696      5695      5697
      5696      5695      5698      5697      5695      5698      5699      5698      5700
      5699      5698      5701      5700      5698      5701      5702      5705      5706
      5702      5705      5707      5702      5705      5708      5703      5702      5704
      5703      5702      5705      5704      5702      5705      5705      5708      5709
      5705      5708      5710      5705      5708      5711      5706      5705      5707
      5706      5705      5708      5707      5705      5708      5708      5711      5712
      5708      5711      5713      5708      5711      5714      5709      5708      5710
      5709      5708      5711      5710      5708      5711      5711      5714      5715
      5711      5714      5716      5711      5714      5717      5712      5711      5713
      5712      5711      5714      5713      5711      5714      5714      5717      5718
      5714      5717      5719      5714      5717      5720      5715      5714      5716
      5715      5714      5717      5716      5714      5717      5717      5720      5721
      5717      5720      5722      5717      5720      5723      5718      5717      5719
      5718      5717      5720      5719      5717      5720      5720      5723      5724
      5720      5723      5725      5720      5723      5726      5721      5720      5722
      5721      5720      5723      5722      5720      5723      5723      5726      5727
      5723      5726      5728      5723      5726      5729      5724      5723      5725
      5724      5723      5726      5725      5723      5726      5726      5729      5730
      5726      5729      5731      5726      5729      5732      5727      5726      5728
      5727      5726      5729      5728      5726      5729      5729      5732      5733
      5729      5732      5734      5729      5732      5735      5730      5729      5731
      5730      5729      5732      5731      5729      5732      5732      5735      5736
      5732      5735      5737      5732      5735      5738      5733      5732      5734
      5733      5732      5735      5734      5732      5735      5735      5738      5739
      5735      5738      5740      5735      5738      5741      5736      5735      5737
      5736      5735      5738      5737      5735      5738      5738      5741      5742
      5738      5741      5743      5738      5741      5744      5739      5738      5740
      5739      5738      5741      5740      5738      5741      5741      5744      5745
      5741      5744      5746      5741      5744      5747      5742      5741      5743
      5742      5741      5744      5743      5741      5744      5744      5747      5748
      5744      5747      5749      5744      5747      5750      5745      5744      5746
      5745      5744      5747      5746      5744      5747      5748      5747      5749
      5748      5747      5750      5749      5747      5750      5751      5753      5754
      5751      5755      5756      5751      5755      5757      5751      5755      5758
      5751      5797      5794      5751      5797      5798      5751      5797      5799
      5752      5751      5753      5752      5751      5755      5752      5751      5797
      5753      5751      5755      5753      5751      5797      5755      5751      5797
      5755      5758      5759      5755      5758      5789      5756      5755      5757
      5756      5755      5758      5757      5755      5758      5758      5759      5760
      5758      5759      5761      5758      5789      5787      5758      5789      5790
      5758      5789      5794      5759      5758      5789      5759      5761      5762
      5759      5761      5763      5759      5761      5764      5760      5759      5761
      5761      5764      5765      5761      5764      5766      5761      5764      5787
      5762      5761      5763      5762      5761      5764      5763      5761      5764
      5764      5766      5767      5764      5766      5768      5764      5766      5776
      5764      5787      5784      5764      5787      5788      5764      5787      5789
      5765      5764      5766      5765      5764      5787      5766      5764      5787
      5766      5768      5769      5766      5768      5770      5766      5768      5771
      5766      5776      5774      5766      5776      5777      5766      5776      5781
      5767      5766      5768      5767      5766      5776      5768      5766      5776
      5768      5771      5772      5768      5771      5773      5768      5771      5774
      5769      5768      5770      5769      5768      5771      5770      5768      5771
      5771      5774      5775      5771      5774      5776      5771      5774      5800
      5772      5771      5773      5772      5771      5774      5773      5771      5774
      5774      5776      5777      5774      5776      5781      5774      5800      5801
      5774      5800      5802      5774      5800      5806      5775      5774      5776
      5775      5774      5800      5776      5774      5800      5776      5777      5778
      5776      5777      5779      5776      5777      5780      5776      5781      5782
      5776      5781      5783      5776      5781      5784      5777      5776      5781
      5778      5777      5779      5778      5777      5780      5779      5777      5780
      5781      5784      5785      5781      5784      5786      5781      5784      5787
      5782      5781      5783      5782      5781      5784      5783      5781      5784
      5784      5787      5788      5784      5787      5789      5785      5784      5786
      5785      5784      5787      5786      5784      5787      5787      5789      5790
      5787      5789      5794      5788      5787      5789      5789      5790      5791
      5789      5790      5792      5789      5790      5793      5789      5794      5795
      5789      5794      5796      5789      5794      5797      5790      5789      5794
      5791      5790      5792      5791      5790      5793      5792      5790      5793
      5794      5797      5798      5794      5797      5799      5795      5794      5796
      5795      5794      5797      5796      5794      5797      5798      5797      5799
      5800      5802      5803      5800      5802      5804      5800      5802      5805
      5800      5806      5807      5800      5806      5808      5800      5806      5809
      5801      5800      5802      5801      5800      5806      5802      5800      5806
      5803      5802      5804      5803      5802      5805      5804      5802      5805
      5806      5809      5810      5806      5809      5811      5806      5809      5812
      5807      5806      5808      5807      5806      5809      5808      5806      5809
      5809      5812      5813      5809      5812      5814      5809      5812      5815
      5810      5809      5811      5810      5809      5812      5811      5809      5812
      5812      5815      5816      5812      5815      5817      5812      5815      5821
      5813      5812      5814      5813      5812      5815      5814      5812      5815
      5815      5817      5818      5815      5817      5819      5815      5817      5820
      5815      5821      5822      5815      5821      5823      5815      5821      5824
      5816      5815      5817      5816      5815      5821      5817      5815      5821
      5818      5817      5819      5818      5817      5820      5819      5817      5820
      5822      5821      5823      5822      5821      5824      5823      5821      5824
      5825      5826      5827      5825      5826      5828      5825      5826      5829
      5825      5830      5831      5825      5830      5832      5825      5830      5833
      5825      5834      5835      5825      5834      5836      5825      5834      5837
      5825      5838      5839      5825      5838      5840      5825      5838      5841
      5826      5825      5830      5826      5825      5834      5826      5825      5838
      5827      5826      5828      5827      5826      5829      5828      5826      5829
      5830      5825      5834      5830      5825      5838      5831      5830      5832
      5831      5830      5833      5832      5830      5833      5834      5825      5838
      5835      5834      5836      5835      5834      5837      5836      5834      5837
      5838      5841      5842      5838      5841      5843      5838      5841      5848
      5839      5838      5840      5839      5838      5841      5840      5838      5841
      5841      5848      5844      5842      5841      5843      5842      5841      5848
      5843      5841      5848      5844      5847      5849      5845      5844      5846
      5845      5844      5847      5845      5844      5848      5846      5844      5847
      5846      5844      5848      5847      5844      5848      5847      5849      5850
      5847      5849      5851      5847      5849      5854      5849      5854      5852
      5849      5854      5855      5849      5854      5856      5850      5849      5851
      5850      5849      5854      5851      5849      5854      5852      5854      5855
      5852      5854      5856      5852      5904      5905      5852      5904      5906
      5853      5852      5854      5853      5852      5904      5854      5852      5904
      5854      5856      5857      5854      5856      5858      5854      5856      5860
      5855      5854      5856      5856      5858      5859      5856      5860      5861
      5856      5860      5862      5857      5856      5858      5857      5856      5860
      5858      5856      5860      5860      5862      5863      5860      5862      5864
      5861      5860      5862      5862      5864      5865      5862      5864      5866
      5862      5864      5867      5863      5862      5864      5864      5867      5868
      5864      5867      5869      5864      5867      5870      5865      5864      5866
      5865      5864      5867      5866      5864      5867      5867      5870      5871
      5867      5870      5872      5867      5870      5873      5868      5867      5869
      5868      5867      5870      5869      5867      5870      5870      5873      5874
      5870      5873      5875      5870      5873      5876      5871      5870      5872
      5871      5870      5873      5872      5870      5873      5873      5876      5877
      5873      5876      5878      5873      5876      5879      5874      5873      5875
      5874      5873      5876      5875      5873      5876      5876      5879      5880
      5876      5879      5881      5876      5879      5882      5877      5876      5878
      5877      5876      5879      5878      5876      5879      5879      5882      5883
      5879      5882      5884      5879      5882      5885      5880      5879      5881
      5880      5879      5882      5881      5879      5882      5882      5885      5886
      5882      5885      5887      5882      5885      5888      5883      5882      5884
      5883      5882      5885      5884      5882      5885      5885      5888      5889
      5885      5888      5890      5885      5888      5891      5886      5885      5887
      5886      5885      5888      5887      5885      5888      5888      5891      5892
      5888      5891      5893      5888      5891      5894      5889      5888      5890
      5889      5888      5891      5890      5888      5891      5891      5894      5895
      5891      5894      5896      5891      5894      5897      5892      5891      5893
      5892      5891      5894      5893      5891      5894      5894      5897      5898
      5894      5897      5899      5894      5897      5900      5895      5894      5896
      5895      5894      5897      5896      5894      5897      5897      5900      5901
      5897      5900      5902      5897      5900      5903      5898      5897      5899
      5898      5897      5900      5899      5897      5900      5901      5900      5902
      5901      5900      5903      5902      5900      5903      5904      5906      5907
      5904      5906      5908      5904      5906      5909      5905      5904      5906
      5906      5909      5910      5906      5909      5911      5906      5909      5912
      5907      5906      5908      5907      5906      5909      5908      5906      5909
      5909      5912      5913      5909      5912      5914      5909      5912      5915
      5910      5909      5911      5910      5909      5912      5911      5909      5912
      5912      5915      5916      5912      5915      5917      5912      5915      5918
      5913      5912      5914      5913      5912      5915      5914      5912      5915
      5915      5918      5919      5915      5918      5920      5915      5918      5921
      5916      5915      5917      5916      5915      5918      5917      5915      5918
      5918      5921      5922      5918      5921      5923      5918      5921      5924
      5919      5918      5920      5919      5918      5921      5920      5918      5921
      5921      5924      5925      5921      5924      5926      5921      5924      5927
      5922      5921      5923      5922      5921      5924      5923      5921      5924
      5924      5927      5928      5924      5927      5929      5925      5924      5926
      5925      5924      5927      5926      5924      5927      5927      5929      5930
      5927      5929      5931      5928      5927      5929      5929      5931      5932
      5929      5931      5933      5929      5931      5934      5930      5929      5931
      5931      5934      5935      5931      5934      5936      5931      5934      5937
      5932      5931      5933      5932      5931      5934      5933      5931      5934
      5934      5937      5938      5934      5937      5939      5934      5937      5940
      5935      5934      5936      5935      5934      5937      5936      5934      5937
      5937      5940      5941      5937      5940      5942      5937      5940      5943
      5938      5937      5939      5938      5937      5940      5939      5937      5940
      5940      5943      5944      5940      5943      5945      5940      5943      5946
      5941      5940      5942      5941      5940      5943      5942      5940      5943
      5943      5946      5947      5943      5946      5948      5943      5946      5949
      5944      5943      5945      5944      5943      5946      5945      5943      5946
      5946      5949      5950      5946      5949      5951      5946      5949      5952
      5947      5946      5948      5947      5946      5949      5948      5946      5949
      5949      5952      5953      5949      5952      5954      5949      5952      5955
      5950      5949      5951      5950      5949      5952      5951      5949      5952
      5953      5952      5954      5953      5952      5955      5954      5952      5955
      5956      5957      5958      5956      5957      5959      5956      5957      5960
      5956      5961      5962      5956      5961      5963      5956      5961      5964
      5956      5965      5966      5956      5965      5967      5956      5965      5968
      5956      5969      5970      5956      5969      5971      5956      5969      5972
      5957      5956      5961      5957      5956      5965      5957      5956      5969
      5958      5957      5959      5958      5957      5960      5959      5957      5960
      5961      5956      5965      5961      5956      5969      5962      5961      5963
      5962      5961      5964      5963      5961      5964      5965      5956      5969
      5966      5965      5967      5966      5965      5968      5967      5965      5968
      5969      5972      5973      5969      5972      5974      5969      5972      5979
      5970      5969      5971      5970      5969      5972      5971      5969      5972
      5972      5979      5975      5973      5972      5974      5973      5972      5979
      5974      5972      5979      5975      5978      5980      5976      5975      5977
      5976      5975      5978      5976      5975      5979      5977      5975      5978
      5977      5975      5979      5978      5975      5979      5978      5980      5981
      5978      5980      5982      5978      5980      5985      5980      5985      5983
      5980      5985      5986      5980      5985      5987      5981      5980      5982
      5981      5980      5985      5982      5980      5985      5983      5985      5986
      5983      5985      5987      5983      6035      6036      5983      6035      6037
      5984      5983      5985      5984      5983      6035      5985      5983      6035
      5985      5987      5988      5985      5987      5989      5985      5987      5991
      5986      5985      5987      5987      5989      5990      5987      5991      5992
      5987      5991      5993      5988      5987      5989      5988      5987      5991
      5989      5987      5991      5991      5993      5994      5991      5993      5995
      5992      5991      5993      5993      5995      5996      5993      5995      5997
      5993      5995      5998      5994      5993      5995      5995      5998      5999
      5995      5998      6000      5995      5998      6001      5996      5995      5997
      5996      5995      5998      5997      5995      5998      5998      6001      6002
      5998      6001      6003      5998      6001      6004      5999      5998      6000
      5999      5998      6001      6000      5998      6001      6001      6004      6005
      6001      6004      6006      6001      6004      6007      6002      6001      6003
      6002      6001      6004      6003      6001      6004      6004      6007      6008
      6004      6007      6009      6004      6007      6010      6005      6004      6006
      6005      6004      6007      6006      6004      6007      6007      6010      6011
      6007      6010      6012      6007      6010      6013      6008      6007      6009
      6008      6007      6010      6009      6007      6010      6010      6013      6014
      6010      6013      6015      6010      6013      6016      6011      6010      6012
      6011      6010      6013      6012      6010      6013      6013      6016      6017
      6013      6016      6018      6013      6016      6019      6014      6013      6015
      6014      6013      6016      6015      6013      6016      6016      6019      6020
      6016      6019      6021      6016      6019      6022      6017      6016      6018
      6017      6016      6019      6018      6016      6019      6019      6022      6023
      6019      6022      6024      6019      6022      6025      6020      6019      6021
      6020      6019      6022      6021      6019      6022      6022      6025      6026
      6022      6025      6027      6022      6025      6028      6023      6022      6024
      6023      6022      6025      6024      6022      6025      6025      6028      6029
      6025      6028      6030      6025      6028      6031      6026      6025      6027
      6026      6025      6028      6027      6025      6028      6028      6031      6032
      6028      6031      6033      6028      6031      6034      6029      6028      6030
      6029      6028      6031      6030      6028      6031      6032      6031      6033
      6032      6031      6034      6033      6031      6034      6035      6037      6038
      6035      6037      6039      6035      6037      6040      6036      6035      6037
      6037      6040      6041      6037      6040      6042      6037      6040      6043
      6038      6037      6039      6038      6037      6040      6039      6037      6040
      6040      6043      6044      6040      6043      6045      6040      6043      6046
      6041      6040      6042      6041      6040      6043      6042      6040      6043
      6043      6046      6047      6043      6046      6048      6043      6046      6049
      6044      6043      6045      6044      6043      6046      6045      6043      6046
      6046      6049      6050      6046      6049      6051      6046      6049      6052
      6047      6046      6048      6047      6046      6049      6048      6046      6049
      6049      6052      6053      6049      6052      6054      6049      6052      6055
      6050      6049      6051      6050      6049      6052      6051      6049      6052
      6052      6055      6056      6052      6055      6057      6052      6055      6058
      6053      6052      6054      6053      6052      6055      6054      6052      6055
      6055      6058      6059      6055      6058      6060      6056      6055      6057
      6056      6055      6058      6057      6055      6058      6058      6060      6061
      6058      6060      6062      6059      6058      6060      6060      6062      6063
      6060      6062      6064      6060      6062      6065      6061      6060      6062
      6062      6065      6066      6062      6065      6067      6062      6065      6068
      6063      6062      6064      6063      6062      6065      6064      6062      6065
      6065      6068      6069      6065      6068      6070      6065      6068      6071
      6066      6065      6067      6066      6065      6068      6067      6065      6068
      6068      6071      6072      6068      6071      6073      6068      6071      6074
      6069      6068      6070      6069      6068      6071      6070      6068      6071
      6071      6074      6075      6071      6074      6076      6071      6074      6077
      6072      6071      6073      6072      6071      6074      6073      6071      6074
      6074      6077      6078      6074      6077      6079      6074      6077      6080
      6075      6074      6076      6075      6074      6077      6076      6074      6077
      6077      6080      6081      6077      6080      6082      6077      6080      6083
      6078      6077      6079      6078      6077      6080      6079      6077      6080
      6080      6083      6084      6080      6083      6085      6080      6083      6086
      6081      6080      6082      6081      6080      6083      6082      6080      6083
      6084      6083      6085      6084      6083      6086      6085      6083      6086
      6087      6088      6089      6087      6088      6090      6087      6088      6091
      6087      6092      6093      6087      6092      6094      6087      6092      6095
      6087      6096      6097      6087      6096      6098      6087      6096      6099
      6087      6100      6101      6087      6100      6102      6087      6100      6103
      6088      6087      6092      6088      6087      6096      6088      6087      6100
      6089      6088      6090      6089      6088      6091      6090      6088      6091
      6092      6087      6096      6092      6087      6100      6093      6092      6094
      6093      6092      6095      6094      6092      6095      6096      6087      6100
      6097      6096      6098      6097      6096      6099      6098      6096      6099
      6100      6103      6104      6100      6103      6105      6100      6103      6110
      6101      6100      6102      6101      6100      6103      6102      6100      6103
      6103      6110      6106      6104      6103      6105      6104      6103      6110
      6105      6103      6110      6106      6109      6111      6107      6106      6108
      6107      6106      6109      6107      6106      6110      6108      6106      6109
      6108      6106      6110      6109      6106      6110      6109      6111      6112
      6109      6111      6113      6109      6111      6116      6111      6116      6114
      6111      6116      6117      6111      6116      6118      6112      6111      6113
      6112      6111      6116      6113      6111      6116      6114      6116      6117
      6114      6116      6118      6114      6166      6167      6114      6166      6168
      6115      6114      6116      6115      6114      6166      6116      6114      6166
      6116      6118      6119      6116      6118      6120      6116      6118      6122
      6117      6116      6118      6118      6120      6121      6118      6122      6123
      6118      6122      6124      6119      6118      6120      6119      6118      6122
      6120      6118      6122      6122      6124      6125      6122      6124      6126
      6123      6122      6124      6124      6126      6127      6124      6126      6128
      6124      6126      6129      6125      6124      6126      6126      6129      6130
      6126      6129      6131      6126      6129      6132      6127      6126      6128
      6127      6126      6129      6128      6126      6129      6129      6132      6133
      6129      6132      6134      6129      6132      6135      6130      6129      6131
      6130      6129      6132      6131      6129      6132      6132      6135      6136
      6132      6135      6137      6132      6135      6138      6133      6132      6134
      6133      6132      6135      6134      6132      6135      6135      6138      6139
      6135      6138      6140      6135      6138      6141      6136      6135      6137
      6136      6135      6138      6137      6135      6138      6138      6141      6142
      6138      6141      6143      6138      6141      6144      6139      6138      6140
      6139      6138      6141      6140      6138      6141      6141      6144      6145
      6141      6144      6146      6141      6144      6147      6142      6141      6143
      6142      6141      6144      6143      6141      6144      6144      6147      6148
      6144      6147      6149      6144      6147      6150      6145      6144      6146
      6145      6144      6147      6146      6144      6147      6147      6150      6151
      6147      6150      6152      6147      6150      6153      6148      6147      6149
      6148      6147      6150      6149      6147      6150      6150      6153      6154
      6150      6153      6155      6150      6153      6156      6151      6150      6152
      6151      6150      6153      6152      6150      6153      6153      6156      6157
      6153      6156      6158      6153      6156      6159      6154      6153      6155
      6154      6153      6156      6155      6153      6156      6156      6159      6160
      6156      6159      6161      6156      6159      6162      6157      6156      6158
      6157      6156      6159      6158      6156      6159      6159      6162      6163
      6159      6162      6164      6159      6162      6165      6160      6159      6161
      6160      6159      6162      6161      6159      6162      6163      6162      6164
      6163      6162      6165      6164      6162      6165      6166      6168      6169
      6166      6168      6170      6166      6168      6171      6167      6166      6168
      6168      6171      6172      6168      6171      6173      6168      6171      6174
      6169      6168      6170      6169      6168      6171      6170      6168      6171
      6171      6174      6175      6171      6174      6176      6171      6174      6177
      6172      6171      6173      6172      6171      6174      6173      6171      6174
      6174      6177      6178      6174      6177      6179      6174      6177      6180
      6175      6174      6176      6175      6174      6177      6176      6174      6177
      6177      6180      6181      6177      6180      6182      6177      6180      6183
      6178      6177      6179      6178      6177      6180      6179      6177      6180
      6180      6183      6184      6180      6183      6185      6180      6183      6186
      6181      6180      6182      6181      6180      6183      6182      6180      6183
      6183      6186      6187      6183      6186      6188      6183      6186      6189
      6184      6183      6185      6184      6183      6186      6185      6183      6186
      6186      6189      6190      6186      6189      6191      6187      6186      6188
      6187      6186      6189      6188      6186      6189      6189      6191      6192
      6189      6191      6193      6190      6189      6191      6191      6193      6194
      6191      6193      6195      6191      6193      6196      6192      6191      6193
      6193      6196      6197      6193      6196      6198      6193      6196      6199
      6194      6193      6195      6194      6193      6196      6195      6193      6196
      6196      6199      6200      6196      6199      6201      6196      6199      6202
      6197      6196      6198      6197      6196      6199      6198      6196      6199
      6199      6202      6203      6199      6202      6204      6199      6202      6205
      6200      6199      6201      6200      6199      6202      6201      6199      6202
      6202      6205      6206      6202      6205      6207      6202      6205      6208
      6203      6202      6204      6203      6202      6205      6204      6202      6205
      6205      6208      6209      6205      6208      6210      6205      6208      6211
      6206      6205      6207      6206      6205      6208      6207      6205      6208
      6208      6211      6212      6208      6211      6213      6208      6211      6214
      6209      6208      6210      6209      6208      6211      6210      6208      6211
      6211      6214      6215      6211      6214      6216      6211      6214      6217
      6212      6211      6213      6212      6211      6214      6213      6211      6214
      6215      6214      6216      6215      6214      6217      6216      6214      6217
      6218      6219      6220      6218      6219      6221      6218      6219      6222
      6218      6223      6224      6218      6223      6225      6218      6223      6226
      6218      6227      6228      6218      6227      6229      6218      6227      6230
      6218      6231      6232      6218      6231      6233      6218      6231      6234
      6219      6218      6223      6219      6218      6227      6219      6218      6231
      6220      6219      6221      6220      6219      6222      6221      6219      6222
      6223      6218      6227      6223      6218      6231      6224      6223      6225
      6224      6223      6226      6225      6223      6226      6227      6218      6231
      6228      6227      6229      6228      6227      6230      6229      6227      6230
      6231      6234      6235      6231      6234      6236      6231      6234      6241
      6232      6231      6233      6232      6231      6234      6233      6231      6234
      6234      6241      6237      6235      6234      6236      6235      6234      6241
      6236      6234      6241      6237      6240      6242      6238      6237      6239
      6238      6237      6240      6238      6237      6241      6239      6237      6240
      6239      6237      6241      6240      6237      6241      6240      6242      6243
      6240      6242      6244      6240      6242      6247      6242      6247      6245
      6242      6247      6248      6242      6247      6249      6243      6242      6244
      6243      6242      6247      6244      6242      6247      6245      6247      6248
      6245      6247      6249      6245      6297      6298      6245      6297      6299
      6246      6245      6247      6246      6245      6297      6247      6245      6297
      6247      6249      6250      6247      6249      6251      6247      6249      6253
      6248      6247      6249      6249      6251      6252      6249      6253      6254
      6249      6253      6255      6250      6249      6251      6250      6249      6253
      6251      6249      6253      6253      6255      6256      6253      6255      6257
      6254      6253      6255      6255      6257      6258      6255      6257      6259
      6255      6257      6260      6256      6255      6257      6257      6260      6261
      6257      6260      6262      6257      6260      6263      6258      6257      6259
      6258      6257      6260      6259      6257      6260      6260      6263      6264
      6260      6263      6265      6260      6263      6266      6261      6260      6262
      6261      6260      6263      6262      6260      6263      6263      6266      6267
      6263      6266      6268      6263      6266      6269      6264      6263      6265
      6264      6263      6266      6265      6263      6266      6266      6269      6270
      6266      6269      6271      6266      6269      6272      6267      6266      6268
      6267      6266      6269      6268      6266      6269      6269      6272      6273
      6269      6272      6274      6269      6272      6275      6270      6269      6271
      6270      6269      6272      6271      6269      6272      6272      6275      6276
      6272      6275      6277      6272      6275      6278      6273      6272      6274
      6273      6272      6275      6274      6272      6275      6275      6278      6279
      6275      6278      6280      6275      6278      6281      6276      6275      6277
      6276      6275      6278      6277      6275      6278      6278      6281      6282
      6278      6281      6283      6278      6281      6284      6279      6278      6280
      6279      6278      6281      6280      6278      6281      6281      6284      6285
      6281      6284      6286      6281      6284      6287      6282      6281      6283
      6282      6281      6284      6283      6281      6284      6284      6287      6288
      6284      6287      6289      6284      6287      6290      6285      6284      6286
      6285      6284      6287      6286      6284      6287      6287      6290      6291
      6287      6290      6292      6287      6290      6293      6288      6287      6289
      6288      6287      6290      6289      6287      6290      6290      6293      6294
      6290      6293      6295      6290      6293      6296      6291      6290      6292
      6291      6290      6293      6292      6290      6293      6294      6293      6295
      6294      6293      6296      6295      6293      6296      6297      6299      6300
      6297      6299      6301      6297      6299      6302      6298      6297      6299
      6299      6302      6303      6299      6302      6304      6299      6302      6305
      6300      6299      6301      6300      6299      6302      6301      6299      6302
      6302      6305      6306      6302      6305      6307      6302      6305      6308
      6303      6302      6304      6303      6302      6305      6304      6302      6305
      6305      6308      6309      6305      6308      6310      6305      6308      6311
      6306      6305      6307      6306      6305      6308      6307      6305      6308
      6308      6311      6312      6308      6311      6313      6308      6311      6314
      6309      6308      6310      6309      6308      6311      6310      6308      6311
      6311      6314      6315      6311      6314      6316      6311      6314      6317
      6312      6311      6313      6312      6311      6314      6313      6311      6314
      6314      6317      6318      6314      6317      6319      6314      6317      6320
      6315      6314      6316      6315      6314      6317      6316      6314      6317
      6317      6320      6321      6317      6320      6322      6318      6317      6319
      6318      6317      6320      6319      6317      6320      6320      6322      6323
      6320      6322      6324      6321      6320      6322      6322      6324      6325
      6322      6324      6326      6322      6324      6327      6323      6322      6324
      6324      6327      6328      6324      6327      6329      6324      6327      6330
      6325      6324      6326      6325      6324      6327      6326      6324      6327
      6327      6330      6331      6327      6330      6332      6327      6330      6333
      6328      6327      6329      6328      6327      6330      6329      6327      6330
      6330      6333      6334      6330      6333      6335      6330      6333      6336
      6331      6330      6332      6331      6330      6333      6332      6330      6333
      6333      6336      6337      6333      6336      6338      6333      6336      6339
      6334      6333      6335      6334      6333      6336      6335      6333      6336
      6336      6339      6340      6336      6339      6341      6336      6339      6342
      6337      6336      6338      6337      6336      6339      6338      6336      6339
      6339      6342      6343      6339      6342      6344      6339      6342      6345
      6340      6339      6341      6340      6339      6342      6341      6339      6342
      6342      6345      6346      6342      6345      6347      6342      6345      6348
      6343      6342      6344      6343      6342      6345      6344      6342      6345
      6346      6345      6347      6346      6345      6348      6347      6345      6348
      6349      6350      6351      6349      6350      6352      6349      6350      6353
      6349      6354      6355      6349      6354      6356      6349      6354      6357
      6349      6358      6359      6349      6358      6360      6349      6358      6361
      6349      6362      6363      6349      6362      6364      6349      6362      6365
      6350      6349      6354      6350      6349      6358      6350      6349      6362
      6351      6350      6352      6351      6350      6353      6352      6350      6353
      6354      6349      6358      6354      6349      6362      6355      6354      6356
      6355      6354      6357      6356      6354      6357      6358      6349      6362
      6359      6358      6360      6359      6358      6361      6360      6358      6361
      6362      6365      6366      6362      6365      6367      6362      6365      6371
      6363      6362      6364      6363      6362      6365      6364      6362      6365
      6365      6371      6368      6366      6365      6367      6366      6365      6371
      6367      6365      6371      6368      6372      6373      6369      6368      6370
      6369      6368      6371      6369      6368      6372      6370      6368      6371
      6370      6368      6372      6371      6368      6372      6372      6373      6374
      6372      6373      6375      6372      6373      6376      6373      6376      6377
      6373      6376      6378      6373      6376      6384      6374      6373      6375
      6374      6373      6376      6375      6373      6376      6376      6378      6379
      6376      6384      6385      6376      6384      6386      6376      6384      6387
      6377      6376      6378      6377      6376      6384      6378      6376      6384
      6378      6379      6380      6378      6379      6381      6379      6381      6382
      6379      6381      6383      6379      6381      6393      6380      6379      6381
      6381      6393      6394      6381      6393      6395      6381      6393      6396
      6382      6381      6383      6382      6381      6393      6383      6381      6393
      6384      6387      6388      6385      6384      6386      6385      6384      6387
      6386      6384      6387      6387      6388      6389      6387      6388      6390
      6388      6390      6391      6388      6390      6392      6388      6390      6438
      6389      6388      6390      6390      6438      6439      6390      6438      6440
      6390      6438      6441      6391      6390      6392      6391      6390      6438
      6392      6390      6438      6393      6396      6397      6393      6396      6398
      6393      6396      6399      6394      6393      6395      6394      6393      6396
      6395      6393      6396      6396      6399      6400      6396      6399      6401
      6396      6399      6402      6397      6396      6398      6397      6396      6399
      6398      6396      6399      6399      6402      6403      6399      6402      6404
      6399      6402      6405      6400      6399      6401      6400      6399      6402
      6401      6399      6402      6402      6405      6406      6402      6405      6407
      6402      6405      6408      6403      6402      6404      6403      6402      6405
      6404      6402      6405      6405      6408      6409      6405      6408      6410
      6405      6408      6411      6406      6405      6407      6406      6405      6408
      6407      6405      6408      6408      6411      6412      6408      6411      6413
      6409      6408      6410      6409      6408      6411      6410      6408      6411
      6411      6413      6414      6411      6413      6415      6412      6411      6413
      6413      6415      6416      6413      6415      6417      6413      6415      6418
      6414      6413      6415      6415      6418      6419      6415      6418      6420
      6416      6415      6417      6416      6415      6418      6417      6415      6418
      6418      6420      6421      6418      6420      6422      6419      6418      6420
      6420      6422      6423      6420      6422      6424      6420      6422      6425
      6421      6420      6422      6422      6425      6426      6422      6425      6427
      6422      6425      6428      6423      6422      6424      6423      6422      6425
      6424      6422      6425      6425      6428      6429      6425      6428      6430
      6425      6428      6431      6426      6425      6427      6426      6425      6428
      6427      6425      6428      6428      6431      6432      6428      6431      6433
      6428      6431      6434      6429      6428      6430      6429      6428      6431
      6430      6428      6431      6431      6434      6435      6431      6434      6436
      6431      6434      6437      6432      6431      6433      6432      6431      6434
      6433      6431      6434      6435      6434      6436      6435      6434      6437
      6436      6434      6437      6438      6441      6442      6438      6441      6443
      6438      6441      6444      6439      6438      6440      6439      6438      6441
      6440      6438      6441      6441      6444      6445      6441      6444      6446
      6441      6444      6447      6442      6441      6443      6442      6441      6444
      6443      6441      6444      6444      6447      6448      6444      6447      6449
      6444      6447      6450      6445      6444      6446      6445      6444      6447
      6446      6444      6447      6447      6450      6451      6447      6450      6452
      6447      6450      6453      6448      6447      6449      6448      6447      6450
      6449      6447      6450      6450      6453      6454      6450      6453      6455
      6450      6453      6456      6451      6450      6452      6451      6450      6453
      6452      6450      6453      6453      6456      6457      6453      6456      6458
      6453      6456      6459      6454      6453      6455      6454      6453      6456
      6455      6453      6456      6456      6459      6460      6456      6459      6461
      6456      6459      6462      6457      6456      6458      6457      6456      6459
      6458      6456      6459      6459      6462      6463      6459      6462      6464
      6459      6462      6465      6460      6459      6461      6460      6459      6462
      6461      6459      6462      6462      6465      6466      6462      6465      6467
      6462      6465      6468      6463      6462      6464      6463      6462      6465
      6464      6462      6465      6465      6468      6469      6465      6468      6470
      6465      6468      6471      6466      6465      6467      6466      6465      6468
      6467      6465      6468      6468      6471      6472      6468      6471      6473
      6468      6471      6474      6469      6468      6470      6469      6468      6471
      6470      6468      6471      6471      6474      6475      6471      6474      6476
      6471      6474      6477      6472      6471      6473      6472      6471      6474
      6473      6471      6474      6474      6477      6478      6474      6477      6479
      6474      6477      6480      6475      6474      6476      6475      6474      6477
      6476      6474      6477      6477      6480      6481      6477      6480      6482
      6477      6480      6483      6478      6477      6479      6478      6477      6480
      6479      6477      6480      6480      6483      6484      6480      6483      6485
      6480      6483      6486      6481      6480      6482      6481      6480      6483
      6482      6480      6483      6484      6483      6485      6484      6483      6486
      6485      6483      6486      6487      6488      6489      6487      6488      6490
      6487      6488      6491      6487      6492      6493      6487      6492      6494
      6487      6492      6495      6487      6496      6497      6487      6496      6498
      6487      6496      6499      6487      6500      6501      6487      6500      6502
      6487      6500      6503      6488      6487      6492      6488      6487      6496
      6488      6487      6500      6489      6488      6490      6489      6488      6491
      6490      6488      6491      6492      6487      6496      6492      6487      6500
      6493      6492      6494      6493      6492      6495      6494      6492      6495
      6496      6487      6500      6497      6496      6498      6497      6496      6499
      6498      6496      6499      6500      6503      6504      6500      6503      6505
      6500      6503      6509      6501      6500      6502      6501      6500      6503
      6502      6500      6503      6503      6509      6506      6504      6503      6505
      6504      6503      6509      6505      6503      6509      6506      6510      6511
      6507      6506      6508      6507      6506      6509      6507      6506      6510
      6508      6506      6509      6508      6506      6510      6509      6506      6510
      6510      6511      6512      6510      6511      6513      6510      6511      6514
      6511      6514      6515      6511      6514      6516      6511      6514      6522
      6512      6511      6513      6512      6511      6514      6513      6511      6514
      6514      6516      6517      6514      6522      6523      6514      6522      6524
      6514      6522      6525      6515      6514      6516      6515      6514      6522
      6516      6514      6522      6516      6517      6518      6516      6517      6519
      6517      6519      6520      6517      6519      6521      6517      6519      6531
      6518      6517      6519      6519      6531      6532      6519      6531      6533
      6519      6531      6534      6520      6519      6521      6520      6519      6531
      6521      6519      6531      6522      6525      6526      6523      6522      6524
      6523      6522      6525      6524      6522      6525      6525      6526      6527
      6525      6526      6528      6526      6528      6529      6526      6528      6530
      6526      6528      6576      6527      6526      6528      6528      6576      6577
      6528      6576      6578      6528      6576      6579      6529      6528      6530
      6529      6528      6576      6530      6528      6576      6531      6534      6535
      6531      6534      6536      6531      6534      6537      6532      6531      6533
      6532      6531      6534      6533      6531      6534      6534      6537      6538
      6534      6537      6539      6534      6537      6540      6535      6534      6536
      6535      6534      6537      6536      6534      6537      6537      6540      6541
      6537      6540      6542      6537      6540      6543      6538      6537      6539
      6538      6537      6540      6539      6537      6540      6540      6543      6544
      6540      6543      6545      6540      6543      6546      6541      6540      6542
      6541      6540      6543      6542      6540      6543      6543      6546      6547
      6543      6546      6548      6543      6546      6549      6544      6543      6545
      6544      6543      6546      6545      6543      6546      6546      6549      6550
      6546      6549      6551      6547      6546      6548      6547      6546      6549
      6548      6546      6549      6549      6551      6552      6549      6551      6553
      6550      6549      6551      6551      6553      6554      6551      6553      6555
      6551      6553      6556      6552      6551      6553      6553      6556      6557
      6553      6556      6558      6554      6553      6555      6554      6553      6556
      6555      6553      6556      6556      6558      6559      6556      6558      6560
      6557      6556      6558      6558      6560      6561      6558      6560      6562
      6558      6560      6563      6559      6558      6560      6560      6563      6564
      6560      6563      6565      6560      6563      6566      6561      6560      6562
      6561      6560      6563      6562      6560      6563      6563      6566      6567
      6563      6566      6568      6563      6566      6569      6564      6563      6565
      6564      6563      6566      6565      6563      6566      6566      6569      6570
      6566      6569      6571      6566      6569      6572      6567      6566      6568
      6567      6566      6569      6568      6566      6569      6569      6572      6573
      6569      6572      6574      6569      6572      6575      6570      6569      6571
      6570      6569      6572      6571      6569      6572      6573      6572      6574
      6573      6572      6575      6574      6572      6575      6576      6579      6580
      6576      6579      6581      6576      6579      6582      6577      6576      6578
      6577      6576      6579      6578      6576      6579      6579      6582      6583
      6579      6582      6584      6579      6582      6585      6580      6579      6581
      6580      6579      6582      6581      6579      6582      6582      6585      6586
      6582      6585      6587      6582      6585      6588      6583      6582      6584
      6583      6582      6585      6584      6582      6585      6585      6588      6589
      6585      6588      6590      6585      6588      6591      6586      6585      6587
      6586      6585      6588      6587      6585      6588      6588      6591      6592
      6588      6591      6593      6588      6591      6594      6589      6588      6590
      6589      6588      6591      6590      6588      6591      6591      6594      6595
      6591      6594      6596      6591      6594      6597      6592      6591      6593
      6592      6591      6594      6593      6591      6594      6594      6597      6598
      6594      6597      6599      6594      6597      6600      6595      6594      6596
      6595      6594      6597      6596      6594      6597      6597      6600      6601
      6597      6600      6602      6597      6600      6603      6598      6597      6599
      6598      6597      6600      6599      6597      6600      6600      6603      6604
      6600      6603      6605      6600      6603      6606      6601      6600      6602
      6601      6600      6603      6602      6600      6603      6603      6606      6607
      6603      6606      6608      6603      6606      6609      6604      6603      6605
      6604      6603      6606      6605      6603      6606      6606      6609      6610
      6606      6609      6611      6606      6609      6612      6607      6606      6608
      6607      6606      6609      6608      6606      6609      6609      6612      6613
      6609      6612      6614      6609      6612      6615      6610      6609      6611
      6610      6609      6612      6611      6609      6612      6612      6615      6616
      6612      6615      6617      6612      6615      6618      6613      6612      6614
      6613      6612      6615      6614      6612      6615      6615      6618      6619
      6615      6618      6620      6615      6618      6621      6616      6615      6617
      6616      6615      6618      6617      6615      6618      6618      6621      6622
      6618      6621      6623      6618      6621      6624      6619      6618      6620
      6619      6618      6621      6620      6618      6621      6622      6621      6623
      6622      6621      6624      6623      6621      6624      6625      6627      6628
      6625      6629      6630      6625      6629      6631      6625      6629      6632
      6625      6671      6668      6625      6671      6672      6625      6671      6673
      6626      6625      6627      6626      6625      6629      6626      6625      6671
      6627      6625      6629      6627      6625      6671      6629      6625      6671
      6629      6632      6633      6629      6632      6663      6630      6629      6631
      6630      6629      6632      6631      6629      6632      6632      6633      6634
      6632      6633      6635      6632      6663      6661      6632      6663      6664
      6632      6663      6668      6633      6632      6663      6633      6635      6636
      6633      6635      6637      6633      6635      6638      6634      6633      6635
      6635      6638      6639      6635      6638      6640      6635      6638      6661
      6636      6635      6637      6636      6635      6638      6637      6635      6638
      6638      6640      6641      6638      6640      6642      6638      6640      6650
      6638      6661      6658      6638      6661      6662      6638      6661      6663
      6639      6638      6640      6639      6638      6661      6640      6638      6661
      6640      6642      6643      6640      6642      6644      6640      6642      6645
      6640      6650      6648      6640      6650      6651      6640      6650      6655
      6641      6640      6642      6641      6640      6650      6642      6640      6650
      6642      6645      6646      6642      6645      6647      6642      6645      6648
      6643      6642      6644      6643      6642      6645      6644      6642      6645
      6645      6648      6649      6645      6648      6650      6645      6648      6674
      6646      6645      6647      6646      6645      6648      6647      6645      6648
      6648      6650      6651      6648      6650      6655      6648      6674      6675
      6648      6674      6676      6648      6674      6680      6649      6648      6650
      6649      6648      6674      6650      6648      6674      6650      6651      6652
      6650      6651      6653      6650      6651      6654      6650      6655      6656
      6650      6655      6657      6650      6655      6658      6651      6650      6655
      6652      6651      6653      6652      6651      6654      6653      6651      6654
      6655      6658      6659      6655      6658      6660      6655      6658      6661
      6656      6655      6657      6656      6655      6658      6657      6655      6658
      6658      6661      6662      6658      6661      6663      6659      6658      6660
      6659      6658      6661      6660      6658      6661      6661      6663      6664
      6661      6663      6668      6662      6661      6663      6663      6664      6665
      6663      6664      6666      6663      6664      6667      6663      6668      6669
      6663      6668      6670      6663      6668      6671      6664      6663      6668
      6665      6664      6666      6665      6664      6667      6666      6664      6667
      6668      6671      6672      6668      6671      6673      6669      6668      6670
      6669      6668      6671      6670      6668      6671      6672      6671      6673
      6674      6676      6677      6674      6676      6678      6674      6676      6679
      6674      6680      6681      6674      6680      6682      6674      6680      6683
      6675      6674      6676      6675      6674      6680      6676      6674      6680
      6677      6676      6678      6677      6676      6679      6678      6676      6679
      6680      6683      6684      6680      6683      6685      6680      6683      6686
      6681      6680      6682      6681      6680      6683      6682      6680      6683
      6683      6686      6687      6683      6686      6688      6683      6686      6689
      6684      6683      6685      6684      6683      6686      6685      6683      6686
      6686      6689      6690      6686      6689      6691      6686      6689      6695
      6687      6686      6688      6687      6686      6689      6688      6686      6689
      6689      6691      6692      6689      6691      6693      6689      6691      6694
      6689      6695      6696      6689      6695      6697      6689      6695      6698
      6690      6689      6691      6690      6689      6695      6691      6689      6695
      6692      6691      6693      6692      6691      6694      6693      6691      6694
      6696      6695      6697      6696      6695      6698      6697      6695      6698
      6699      6701      6702      6699      6703      6704      6699      6703      6705
      6699      6703      6706      6699      6745      6742      6699      6745      6746
      6699      6745      6747      6700      6699      6701      6700      6699      6703
      6700      6699      6745      6701      6699      6703      6701      6699      6745
      6703      6699      6745      6703      6706      6707      6703      6706      6737
      6704      6703      6705      6704      6703      6706      6705      6703      6706
      6706      6707      6708      6706      6707      6709      6706      6737      6735
      6706      6737      6738      6706      6737      6742      6707      6706      6737
      6707      6709      6710      6707      6709      6711      6707      6709      6712
      6708      6707      6709      6709      6712      6713      6709      6712      6714
      6709      6712      6735      6710      6709      6711      6710      6709      6712
      6711      6709      6712      6712      6714      6715      6712      6714      6716
      6712      6714      6724      6712      6735      6732      6712      6735      6736
      6712      6735      6737      6713      6712      6714      6713      6712      6735
      6714      6712      6735      6714      6716      6717      6714      6716      6718
      6714      6716      6719      6714      6724      6722      6714      6724      6725
      6714      6724      6729      6715      6714      6716      6715      6714      6724
      6716      6714      6724      6716      6719      6720      6716      6719      6721
      6716      6719      6722      6717      6716      6718      6717      6716      6719
      6718      6716      6719      6719      6722      6723      6719      6722      6724
      6719      6722      6748      6720      6719      6721      6720      6719      6722
      6721      6719      6722      6722      6724      6725      6722      6724      6729
      6722      6748      6749      6722      6748      6750      6722      6748      6754
      6723      6722      6724      6723      6722      6748      6724      6722      6748
      6724      6725      6726      6724      6725      6727      6724      6725      6728
      6724      6729      6730      6724      6729      6731      6724      6729      6732
      6725      6724      6729      6726      6725      6727      6726      6725      6728
      6727      6725      6728      6729      6732      6733      6729      6732      6734
      6729      6732      6735      6730      6729      6731      6730      6729      6732
      6731      6729      6732      6732      6735      6736      6732      6735      6737
      6733      6732      6734      6733      6732      6735      6734      6732      6735
      6735      6737      6738      6735      6737      6742      6736      6735      6737
      6737      6738      6739      6737      6738      6740      6737      6738      6741
      6737      6742      6743      6737      6742      6744      6737      6742      6745
      6738      6737      6742      6739      6738      6740      6739      6738      6741
      6740      6738      6741      6742      6745      6746      6742      6745      6747
      6743      6742      6744      6743      6742      6745      6744      6742      6745
      6746      6745      6747      6748      6750      6751      6748      6750      6752
      6748      6750      6753      6748      6754      6755      6748      6754      6756
      6748      6754      6757      6749      6748      6750      6749      6748      6754
      6750      6748      6754      6751      6750      6752      6751      6750      6753
      6752      6750      6753      6754      6757      6758      6754      6757      6759
      6754      6757      6760      6755      6754      6756      6755      6754      6757
      6756      6754      6757      6757      6760      6761      6757      6760      6762
      6757      6760      6763      6758      6757      6759      6758      6757      6760
      6759      6757      6760      6760      6763      6764      6760      6763      6765
      6760      6763      6769      6761      6760      6762      6761      6760      6763
      6762      6760      6763      6763      6765      6766      6763      6765      6767
      6763      6765      6768      6763      6769      6770      6763      6769      6771
      6763      6769      6772      6764      6763      6765      6764      6763      6769
      6765      6763      6769      6766      6765      6767      6766      6765      6768
      6767      6765      6768      6770      6769      6771      6770      6769      6772
      6771      6769      6772      6773      6775      6776      6773      6777      6778
      6773      6777      6779      6773      6777      6780      6773      6819      6816
      6773      6819      6820      6773      6819      6821      6774      6773      6775
      6774      6773      6777      6774      6773      6819      6775      6773      6777
      6775      6773      6819      6777      6773      6819      6777      6780      6781
      6777      6780      6811      6778      6777      6779      6778      6777      6780
      6779      6777      6780      6780      6781      6782      6780      6781      6783
      6780      6811      6809      6780      6811      6812      6780      6811      6816
      6781      6780      6811      6781      6783      6784      6781      6783      6785
      6781      6783      6786      6782      6781      6783      6783      6786      6787
      6783      6786      6788      6783      6786      6809      6784      6783      6785
      6784      6783      6786      6785      6783      6786      6786      6788      6789
      6786      6788      6790      6786      6788      6798      6786      6809      6806
      6786      6809      6810      6786      6809      6811      6787      6786      6788
      6787      6786      6809      6788      6786      6809      6788      6790      6791
      6788      6790      6792      6788      6790      6793      6788      6798      6796
      6788      6798      6799      6788      6798      6803      6789      6788      6790
      6789      6788      6798      6790      6788      6798      6790      6793      6794
      6790      6793      6795      6790      6793      6796      6791      6790      6792
      6791      6790      6793      6792      6790      6793      6793      6796      6797
      6793      6796      6798      6793      6796      6822      6794      6793      6795
      6794      6793      6796      6795      6793      6796      6796      6798      6799
      6796      6798      6803      6796      6822      6823      6796      6822      6824
      6796      6822      6828      6797      6796      6798      6797      6796      6822
      6798      6796      6822      6798      6799      6800      6798      6799      6801
      6798      6799      6802      6798      6803      6804      6798      6803      6805
      6798      6803      6806      6799      6798      6803      6800      6799      6801
      6800      6799      6802      6801      6799      6802      6803      6806      6807
      6803      6806      6808      6803      6806      6809      6804      6803      6805
      6804      6803      6806      6805      6803      6806      6806      6809      6810
      6806      6809      6811      6807      6806      6808      6807      6806      6809
      6808      6806      6809      6809      6811      6812      6809      6811      6816
      6810      6809      6811      6811      6812      6813      6811      6812      6814
      6811      6812      6815      6811      6816      6817      6811      6816      6818
      6811      6816      6819      6812      6811      6816      6813      6812      6814
      6813      6812      6815      6814      6812      6815      6816      6819      6820
      6816      6819      6821      6817      6816      6818      6817      6816      6819
      6818      6816      6819      6820      6819      6821      6822      6824      6825
      6822      6824      6826      6822      6824      6827      6822      6828      6829
      6822      6828      6830      6822      6828      6831      6823      6822      6824
      6823      6822      6828      6824      6822      6828      6825      6824      6826
      6825      6824      6827      6826      6824      6827      6828      6831      6832
      6828      6831      6833      6828      6831      6834      6829      6828      6830
      6829      6828      6831      6830      6828      6831      6831      6834      6835
      6831      6834      6836      6831      6834      6837      6832      6831      6833
      6832      6831      6834      6833      6831      6834      6834      6837      6838
      6834      6837      6839      6834      6837      6843      6835      6834      6836
      6835      6834      6837      6836      6834      6837      6837      6839      6840
      6837      6839      6841      6837      6839      6842      6837      6843      6844
      6837      6843      6845      6837      6843      6846      6838      6837      6839
      6838      6837      6843      6839      6837      6843      6840      6839      6841
      6840      6839      6842      6841      6839      6842      6844      6843      6845
      6844      6843      6846      6845      6843      6846      6847      6849      6850
      6847      6851      6852      6847      6851      6853      6847      6851      6854
      6847      6893      6890      6847      6893      6894      6847      6893      6895
      6848      6847      6849      6848      6847      6851      6848      6847      6893
      6849      6847      6851      6849      6847      6893      6851      6847      6893
      6851      6854      6855      6851      6854      6885      6852      6851      6853
      6852      6851      6854      6853      6851      6854      6854      6855      6856
      6854      6855      6857      6854      6885      6883      6854      6885      6886
      6854      6885      6890      6855      6854      6885      6855      6857      6858
      6855      6857      6859      6855      6857      6860      6856      6855      6857
      6857      6860      6861      6857      6860      6862      6857      6860      6883
      6858      6857      6859      6858      6857      6860      6859      6857      6860
      6860      6862      6863      6860      6862      6864      6860      6862      6872
      6860      6883      6880      6860      6883      6884      6860      6883      6885
      6861      6860      6862      6861      6860      6883      6862      6860      6883
      6862      6864      6865      6862      6864      6866      6862      6864      6867
      6862      6872      6870      6862      6872      6873      6862      6872      6877
      6863      6862      6864      6863      6862      6872      6864      6862      6872
      6864      6867      6868      6864      6867      6869      6864      6867      6870
      6865      6864      6866      6865      6864      6867      6866      6864      6867
      6867      6870      6871      6867      6870      6872      6867      6870      6896
      6868      6867      6869      6868      6867      6870      6869      6867      6870
      6870      6872      6873      6870      6872      6877      6870      6896      6897
      6870      6896      6898      6870      6896      6902      6871      6870      6872
      6871      6870      6896      6872      6870      6896      6872      6873      6874
      6872      6873      6875      6872      6873      6876      6872      6877      6878
      6872      6877      6879      6872      6877      6880      6873      6872      6877
      6874      6873      6875      6874      6873      6876      6875      6873      6876
      6877      6880      6881      6877      6880      6882      6877      6880      6883
      6878      6877      6879      6878      6877      6880      6879      6877      6880
      6880      6883      6884      6880      6883      6885      6881      6880      6882
      6881      6880      6883      6882      6880      6883      6883      6885      6886
      6883      6885      6890      6884      6883      6885      6885      6886      6887
      6885      6886      6888      6885      6886      6889      6885      6890      6891
      6885      6890      6892      6885      6890      6893      6886      6885      6890
      6887      6886      6888      6887      6886      6889      6888      6886      6889
      6890      6893      6894      6890      6893      6895      6891      6890      6892
      6891      6890      6893      6892      6890      6893      6894      6893      6895
      6896      6898      6899      6896      6898      6900      6896      6898      6901
      6896      6902      6903      6896      6902      6904      6896      6902      6905
      6897      6896      6898      6897      6896      6902      6898      6896      6902
      6899      6898      6900      6899      6898      6901      6900      6898      6901
      6902      6905      6906      6902      6905      6907      6902      6905      6908
      6903      6902      6904      6903      6902      6905      6904      6902      6905
      6905      6908      6909      6905      6908      6910      6905      6908      6911
      6906      6905      6907      6906      6905      6908      6907      6905      6908
      6908      6911      6912      6908      6911      6913      6908      6911      6917
      6909      6908      6910      6909      6908      6911      6910      6908      6911
      6911      6913      6914      6911      6913      6915      6911      6913      6916
      6911      6917      6918      6911      6917      6919      6911      6917      6920
      6912      6911      6913      6912      6911      6917      6913      6911      6917
      6914      6913      6915      6914      6913      6916      6915      6913      6916
      6918      6917      6919      6918      6917      6920      6919      6917      6920
      6921      6923      6924      6921      6925      6926      6921      6925      6927
      6921      6925      6929      6921      6941      6937      6921      6941      6942
      6921      6941      6946      6922      6921      6923      6922      6921      6925
      6922      6921      6941      6923      6921      6925      6923      6921      6941
      6925      6921      6941      6925      6927      6928      6925      6929      6930
      6925      6929      6931      6925      6929      6933      6926      6925      6927
      6926      6925      6929      6927      6925      6929      6929      6931      6932
      6929      6933      6934      6929      6933      6935      6929      6933      6937
      6930      6929      6931      6930      6929      6933      6931      6929      6933
      6933      6935      6936      6933      6937      6938      6933      6937      6939
      6933      6937      6941      6934      6933      6935      6934      6933      6937
      6935      6933      6937      6937      6939      6940      6937      6941      6942
      6937      6941      6946      6938      6937      6939      6938      6937      6941
      6939      6937      6941      6941      6946      6943      6942      6941      6946
      6943      6947      6948      6944      6943      6945      6944      6943      6946
      6944      6943      6947      6945      6943      6946      6945      6943      6947
      6946      6943      6947      6947      6948      6949      6947      6948      6950
      6947      6948      6951      6948      6951      6952      6948      6951      6953
      6948      6951      6959      6949      6948      6950      6949      6948      6951
      6950      6948      6951      6951      6953      6954      6951      6959      6960
      6951      6959      6961      6951      6959      6962      6952      6951      6953
      6952      6951      6959      6953      6951      6959      6953      6954      6955
      6953      6954      6956      6954      6956      6957      6954      6956      6958
      6954      6956      6968      6955      6954      6956      6956      6968      6969
      6956      6968      6970      6956      6968      6971      6957      6956      6958
      6957      6956      6968      6958      6956      6968      6959      6962      6963
      6960      6959      6961      6960      6959      6962      6961      6959      6962
      6962      6963      6964      6962      6963      6965      6963      6965      6966
      6963      6965      6967      6963      6965      7015      6964      6963      6965
      6965      7015      7016      6965      7015      7017      6965      7015      7018
      6966      6965      6967      6966      6965      7015      6967      6965      7015
      6968      6971      6972      6968      6971      6973      6968      6971      6974
      6969      6968      6970      6969      6968      6971      6970      6968      6971
      6971      6974      6975      6971      6974      6976      6972      6971      6973
      6972      6971      6974      6973      6971      6974      6974      6976      6977
      6974      6976      6978      6975      6974      6976      6976      6978      6979
      6976      6978      6980      6976      6978      6981      6977      6976      6978
      6978      6981      6982      6978      6981      6983      6979      6978      6980
      6979      6978      6981      6980      6978      6981      6981      6983      6984
      6981      6983      6985      6982      6981      6983      6983      6985      6986
      6983      6985      6987      6983      6985      6988      6984      6983      6985
      6985      6988      6989      6985      6988      6990      6986      6985      6987
      6986      6985      6988      6987      6985      6988      6988      6990      6991
      6988      6990      6992      6989      6988      6990      6990      6992      6993
      6990      6992      6994      6990      6992      6995      6991      6990      6992
      6992      6995      6996      6992      6995      6997      6993      6992      6994
      6993      6992      6995      6994      6992      6995      6995      6997      6998
      6995      6997      6999      6996      6995      6997      6997      6999      7000
      6997      6999      7001      6997      6999      7002      6998      6997      6999
      6999      7002      7003      6999      7002      7004      6999      7002      7005
      7000      6999      7001      7000      6999      7002      7001      6999      7002
      7002      7005      7006      7002      7005      7007      7002      7005      7008
      7003      7002      7004      7003      7002      7005      7004      7002      7005
      7005      7008      7009      7005      7008      7010      7005      7008      7011
      7006      7005      7007      7006      7005      7008      7007      7005      7008
      7008      7011      7012      7008      7011      7013      7008      7011      7014
      7009      7008      7010      7009      7008      7011      7010      7008      7011
      7012      7011      7013      7012      7011      7014      7013      7011      7014
      7015      7018      7019      7015      7018      7020      7015      7018      7021
      7016      7015      7017      7016      7015      7018      7017      7015      7018
      7018      7021      7022      7018      7021      7023      7018      7021      7024
      7019      7018      7020      7019      7018      7021      7020      7018      7021
      7021      7024      7025      7021      7024      7026      7021      7024      7027
      7022      7021      7023      7022      7021      7024      7023      7021      7024
      7024      7027      7028      7024      7027      7029      7024      7027      7030
      7025      7024      7026      7025      7024      7027      7026      7024      7027
      7027      7030      7031      7027      7030      7032      7027      7030      7033
      7028      7027      7029      7028      7027      7030      7029      7027      7030
      7030      7033      7034      7030      7033      7035      7030      7033      7036
      7031      7030      7032      7031      7030      7033      7032      7030      7033
      7033      7036      7037      7033      7036      7038      7033      7036      7039
      7034      7033      7035      7034      7033      7036      7035      7033      7036
      7036      7039      7040      7036      7039      7041      7036      7039      7042
      7037      7036      7038      7037      7036      7039      7038      7036      7039
      7039      7042      7043      7039      7042      7044      7039      7042      7045
      7040      7039      7041      7040      7039      7042      7041      7039      7042
      7042      7045      7046      7042      7045      7047      7042      7045      7048
      7043      7042      7044      7043      7042      7045      7044      7042      7045
      7045      7048      7049      7045      7048      7050      7045      7048      7051
      7046      7045      7047      7046      7045      7048      7047      7045      7048
      7048      7051      7052      7048      7051      7053      7048      7051      7054
      7049      7048      7050      7049      7048      7051      7050      7048      7051
      7051      7054      7055      7051      7054      7056      7051      7054      7057
      7052      7051      7053      7052      7051      7054      7053      7051      7054
      7054      7057      7058      7054      7057      7059      7054      7057      7060
      7055      7054      7056      7055      7054      7057      7056      7054      7057
      7057      7060      7061      7057      7060      7062      7057      7060      7063
      7058      7057      7059      7058      7057      7060      7059      7057      7060
      7061      7060      7062      7061      7060      7063      7062      7060      7063
      7064      7066      7067      7064      7068      7069      7064      7068      7070
      7064      7068      7071      7064      7110      7107      7064      7110      7111
      7064      7110      7112      7065      7064      7066      7065      7064      7068
      7065      7064      7110      7066      7064      7068      7066      7064      7110
      7068      7064      7110      7068      7071      7072      7068      7071      7102
      7069      7068      7070      7069      7068      7071      7070      7068      7071
      7071      7072      7073      7071      7072      7074      7071      7102      7100
      7071      7102      7103      7071      7102      7107      7072      7071      7102
      7072      7074      7075      7072      7074      7076      7072      7074      7077
      7073      7072      7074      7074      7077      7078      7074      7077      7079
      7074      7077      7100      7075      7074      7076      7075      7074      7077
      7076      7074      7077      7077      7079      7080      7077      7079      7081
      7077      7079      7089      7077      7100      7097      7077      7100      7101
      7077      7100      7102      7078      7077      7079      7078      7077      7100
      7079      7077      7100      7079      7081      7082      7079      7081      7083
      7079      7081      7084      7079      7089      7087      7079      7089      7090
      7079      7089      7094      7080      7079      7081      7080      7079      7089
      7081      7079      7089      7081      7084      7085      7081      7084      7086
      7081      7084      7087      7082      7081      7083      7082      7081      7084
      7083      7081      7084      7084      7087      7088      7084      7087      7089
      7084      7087      7113      7085      7084      7086      7085      7084      7087
      7086      7084      7087      7087      7089      7090      7087      7089      7094
      7087      7113      7114      7087      7113      7115      7087      7113      7119
      7088      7087      7089      7088      7087      7113      7089      7087      7113
      7089      7090      7091      7089      7090      7092      7089      7090      7093
      7089      7094      7095      7089      7094      7096      7089      7094      7097
      7090      7089      7094      7091      7090      7092      7091      7090      7093
      7092      7090      7093      7094      7097      7098      7094      7097      7099
      7094      7097      7100      7095      7094      7096      7095      7094      7097
      7096      7094      7097      7097      7100      7101      7097      7100      7102
      7098      7097      7099      7098      7097      7100      7099      7097      7100
      7100      7102      7103      7100      7102      7107      7101      7100      7102
      7102      7103      7104      7102      7103      7105      7102      7103      7106
      7102      7107      7108      7102      7107      7109      7102      7107      7110
      7103      7102      7107      7104      7103      7105      7104      7103      7106
      7105      7103      7106      7107      7110      7111      7107      7110      7112
      7108      7107      7109      7108      7107      7110      7109      7107      7110
      7111      7110      7112      7113      7115      7116      7113      7115      7117
      7113      7115      7118      7113      7119      7120      7113      7119      7121
      7113      7119      7122      7114      7113      7115      7114      7113      7119
      7115      7113      7119      7116      7115      7117      7116      7115      7118
      7117      7115      7118      7119      7122      7123      7119      7122      7124
      7119      7122      7125      7120      7119      7121      7120      7119      7122
      7121      7119      7122      7122      7125      7126      7122      7125      7127
      7122      7125      7128      7123      7122      7124      7123      7122      7125
      7124      7122      7125      7125      7128      7129      7125      7128      7130
      7125      7128      7134      7126      7125      7127      7126      7125      7128
      7127      7125      7128      7128      7130      7131      7128      7130      7132
      7128      7130      7133      7128      7134      7135      7128      7134      7136
      7128      7134      7137      7129      7128      7130      7129      7128      7134
      7130      7128      7134      7131      7130      7132      7131      7130      7133
      7132      7130      7133      7135      7134      7136      7135      7134      7137
      7136      7134      7137      7138      7139      7140      7138      7139      7141
      7138      7139      7142      7138      7143      7144      7138      7143      7145
      7138      7143      7146      7138      7147      7148      7138      7147      7149
      7138      7147      7150      7138      7151      7152      7138      7151      7153
      7138      7151      7154      7139      7138      7143      7139      7138      7147
      7139      7138      7151      7140      7139      7141      7140      7139      7142
      7141      7139      7142      7143      7138      7147      7143      7138      7151
      7144      7143      7145      7144      7143      7146      7145      7143      7146
      7147      7138      7151      7148      7147      7149      7148      7147      7150
      7149      7147      7150      7151      7154      7155      7151      7154      7156
      7151      7154      7161      7152      7151      7153      7152      7151      7154
      7153      7151      7154      7154      7161      7157      7155      7154      7156
      7155      7154      7161      7156      7154      7161      7157      7160      7162
      7158      7157      7159      7158      7157      7160      7158      7157      7161
      7159      7157      7160      7159      7157      7161      7160      7157      7161
      7160      7162      7163      7160      7162      7164      7160      7162      7167
      7162      7167      7165      7162      7167      7168      7162      7167      7169
      7163      7162      7164      7163      7162      7167      7164      7162      7167
      7165      7167      7168      7165      7167      7169      7165      7217      7218
      7165      7217      7219      7166      7165      7167      7166      7165      7217
      7167      7165      7217      7167      7169      7170      7167      7169      7171
      7167      7169      7173      7168      7167      7169      7169      7171      7172
      7169      7173      7174      7169      7173      7175      7170      7169      7171
      7170      7169      7173      7171      7169      7173      7173      7175      7176
      7173      7175      7177      7174      7173      7175      7175      7177      7178
      7175      7177      7179      7175      7177      7180      7176      7175      7177
      7177      7180      7181      7177      7180      7182      7177      7180      7183
      7178      7177      7179      7178      7177      7180      7179      7177      7180
      7180      7183      7184      7180      7183      7185      7180      7183      7186
      7181      7180      7182      7181      7180      7183      7182      7180      7183
      7183      7186      7187      7183      7186      7188      7183      7186      7189
      7184      7183      7185      7184      7183      7186      7185      7183      7186
      7186      7189      7190      7186      7189      7191      7186      7189      7192
      7187      7186      7188      7187      7186      7189      7188      7186      7189
      7189      7192      7193      7189      7192      7194      7189      7192      7195
      7190      7189      7191      7190      7189      7192      7191      7189      7192
      7192      7195      7196      7192      7195      7197      7192      7195      7198
      7193      7192      7194      7193      7192      7195      7194      7192      7195
      7195      7198      7199      7195      7198      7200      7195      7198      7201
      7196      7195      7197      7196      7195      7198      7197      7195      7198
      7198      7201      7202      7198      7201      7203      7198      7201      7204
      7199      7198      7200      7199      7198      7201      7200      7198      7201
      7201      7204      7205      7201      7204      7206      7201      7204      7207
      7202      7201      7203      7202      7201      7204      7203      7201      7204
      7204      7207      7208      7204      7207      7209      7204      7207      7210
      7205      7204      7206      7205      7204      7207      7206      7204      7207
      7207      7210      7211      7207      7210      7212      7207      7210      7213
      7208      7207      7209      7208      7207      7210      7209      7207      7210
      7210      7213      7214      7210      7213      7215      7210      7213      7216
      7211      7210      7212      7211      7210      7213      7212      7210      7213
      7214      7213      7215      7214      7213      7216      7215      7213      7216
      7217      7219      7220      7217      7219      7221      7217      7219      7222
      7218      7217      7219      7219      7222      7223      7219      7222      7224
      7219      7222      7225      7220      7219      7221      7220      7219      7222
      7221      7219      7222      7222      7225      7226      7222      7225      7227
      7222      7225      7228      7223      7222      7224      7223      7222      7225
      7224      7222      7225      7225      7228      7229      7225      7228      7230
      7225      7228      7231      7226      7225      7227      7226      7225      7228
      7227      7225      7228      7228      7231      7232      7228      7231      7233
      7228      7231      7234      7229      7228      7230      7229      7228      7231
      7230      7228      7231      7231      7234      7235      7231      7234      7236
      7231      7234      7237      7232      7231      7233      7232      7231      7234
      7233      7231      7234      7234      7237      7238      7234      7237      7239
      7234      7237      7240      7235      7234      7236      7235      7234      7237
      7236      7234      7237      7237      7240      7241      7237      7240      7242
      7238      7237      7239      7238      7237      7240      7239      7237      7240
      7240      7242      7243      7240      7242      7244      7241      7240      7242
      7242      7244      7245      7242      7244      7246      7242      7244      7247
      7243      7242      7244      7244      7247      7248      7244      7247      7249
      7244      7247      7250      7245      7244      7246      7245      7244      7247
      7246      7244      7247      7247      7250      7251      7247      7250      7252
      7247      7250      7253      7248      7247      7249      7248      7247      7250
      7249      7247      7250      7250      7253      7254      7250      7253      7255
      7250      7253      7256      7251      7250      7252      7251      7250      7253
      7252      7250      7253      7253      7256      7257      7253      7256      7258
      7253      7256      7259      7254      7253      7255      7254      7253      7256
      7255      7253      7256      7256      7259      7260      7256      7259      7261
      7256      7259      7262      7257      7256      7258      7257      7256      7259
      7258      7256      7259      7259      7262      7263      7259      7262      7264
      7259      7262      7265      7260      7259      7261      7260      7259      7262
      7261      7259      7262      7262      7265      7266      7262      7265      7267
      7262      7265      7268      7263      7262      7264      7263      7262      7265
      7264      7262      7265      7266      7265      7267      7266      7265      7268
      7267      7265      7268      7269      7273      7274      7269      7273      7275
      7269      7273      7278      7270      7269      7271      7270      7269      7272
      7270      7269      7273      7271      7269      7272      7271      7269      7273
      7272      7269      7273      7273      7275      7276      7273      7275      7277
      7273      7278      7279      7273      7278      7280      7273      7278      7284
      7274      7273      7275      7274      7273      7278      7275      7273      7278
      7276      7275      7277      7278      7284      7281      7279      7278      7280
      7279      7278      7284      7280      7278      7284      7281      7285      7286
      7282      7281      7283      7282      7281      7284      7282      7281      7285
      7283      7281      7284      7283      7281      7285      7284      7281      7285
      7285      7286      7287      7285      7286      7288      7285      7286      7289
      7286      7289      7290      7286      7289      7291      7286      7289      7297
      7287      7286      7288      7287      7286      7289      7288      7286      7289
      7289      7291      7292      7289      7297      7298      7289      7297      7299
      7289      7297      7300      7290      7289      7291      7290      7289      7297
      7291      7289      7297      7291      7292      7293      7291      7292      7294
      7292      7294      7295      7292      7294      7296      7292      7294      7306
      7293      7292      7294      7294      7306      7307      7294      7306      7308
      7294      7306      7309      7295      7294      7296      7295      7294      7306
      7296      7294      7306      7297      7300      7301      7298      7297      7299
      7298      7297      7300      7299      7297      7300      7300      7301      7302
      7300      7301      7303      7301      7303      7304      7301      7303      7305
      7301      7303      7353      7302      7301      7303      7303      7353      7354
      7303      7353      7355      7303      7353      7356      7304      7303      7305
      7304      7303      7353      7305      7303      7353      7306      7309      7310
      7306      7309      7311      7306      7309      7312      7307      7306      7308
      7307      7306      7309      7308      7306      7309      7309      7312      7313
      7309      7312      7314      7310      7309      7311      7310      7309      7312
      7311      7309      7312      7312      7314      7315      7312      7314      7316
      7313      7312      7314      7314      7316      7317      7314      7316      7318
      7314      7316      7319      7315      7314      7316      7316      7319      7320
      7316      7319      7321      7317      7316      7318      7317      7316      7319
      7318      7316      7319      7319      7321      7322      7319      7321      7323
      7320      7319      7321      7321      7323      7324      7321      7323      7325
      7321      7323      7326      7322      7321      7323      7323      7326      7327
      7323      7326      7328      7324      7323      7325      7324      7323      7326
      7325      7323      7326      7326      7328      7329      7326      7328      7330
      7327      7326      7328      7328      7330      7331      7328      7330      7332
      7328      7330      7333      7329      7328      7330      7330      7333      7334
      7330      7333      7335      7331      7330      7332      7331      7330      7333
      7332      7330      7333      7333      7335      7336      7333      7335      7337
      7334      7333      7335      7335      7337      7338      7335      7337      7339
      7335      7337      7340      7336      7335      7337      7337      7340      7341
      7337      7340      7342      7337      7340      7343      7338      7337      7339
      7338      7337      7340      7339      7337      7340      7340      7343      7344
      7340      7343      7345      7340      7343      7346      7341      7340      7342
      7341      7340      7343      7342      7340      7343      7343      7346      7347
      7343      7346      7348      7343      7346      7349      7344      7343      7345
      7344      7343      7346      7345      7343      7346      7346      7349      7350
      7346      7349      7351      7346      7349      7352      7347      7346      7348
      7347      7346      7349      7348      7346      7349      7350      7349      7351
      7350      7349      7352      7351      7349      7352      7353      7356      7357
      7353      7356      7358      7353      7356      7359      7354      7353      7355
      7354      7353      7356      7355      7353      7356      7356      7359      7360
      7356      7359      7361      7356      7359      7362      7357      7356      7358
      7357      7356      7359      7358      7356      7359      7359      7362      7363
      7359      7362      7364      7359      7362      7365      7360      7359      7361
      7360      7359      7362      7361      7359      7362      7362      7365      7366
      7362      7365      7367      7362      7365      7368      7363      7362      7364
      7363      7362      7365      7364      7362      7365      7365      7368      7369
      7365      7368      7370      7365      7368      7371      7366      7365      7367
      7366      7365      7368      7367      7365      7368      7368      7371      7372
      7368      7371      7373      7368      7371      7374      7369      7368      7370
      7369      7368      7371      7370      7368      7371      7371      7374      7375
      7371      7374      7376      7371      7374      7377      7372      7371      7373
      7372      7371      7374      7373      7371      7374      7374      7377      7378
      7374      7377      7379      7374      7377      7380      7375      7374      7376
      7375      7374      7377      7376      7374      7377      7377      7380      7381
      7377      7380      7382      7377      7380      7383      7378      7377      7379
      7378      7377      7380      7379      7377      7380      7380      7383      7384
      7380      7383      7385      7380      7383      7386      7381      7380      7382
      7381      7380      7383      7382      7380      7383      7383      7386      7387
      7383      7386      7388      7383      7386      7389      7384      7383      7385
      7384      7383      7386      7385      7383      7386      7386      7389      7390
      7386      7389      7391      7386      7389      7392      7387      7386      7388
      7387      7386      7389      7388      7386      7389      7389      7392      7393
      7389      7392      7394      7389      7392      7395      7390      7389      7391
      7390      7389      7392      7391      7389      7392      7392      7395      7396
      7392      7395      7397      7392      7395      7398      7393      7392      7394
      7393      7392      7395      7394      7392      7395      7395      7398      7399
      7395      7398      7400      7395      7398      7401      7396      7395      7397
      7396      7395      7398      7397      7395      7398      7399      7398      7400
      7399      7398      7401      7400      7398      7401      7402      7406      7407
      7402      7406      7408      7402      7406      7409      7403      7402      7404
      7403      7402      7405      7403      7402      7406      7404      7402      7405
      7404      7402      7406      7405      7402      7406      7406      7409      7410
      7406      7409      7411      7406      7409      7415      7407      7406      7408
      7407      7406      7409      7408      7406      7409      7409      7415      7412
      7410      7409      7411      7410      7409      7415      7411      7409      7415
      7412      7416      7417      7413      7412      7414      7413      7412      7415
      7413      7412      7416      7414      7412      7415      7414      7412      7416
      7415      7412      7416      7416      7417      7418      7416      7417      7419
      7416      7417      7420      7417      7420      7421      7417      7420      7422
      7417      7420      7428      7418      7417      7419      7418      7417      7420
      7419      7417      7420      7420      7422      7423      7420      7428      7429
      7420      7428      7430      7420      7428      7431      7421      7420      7422
      7421      7420      7428      7422      7420      7428      7422      7423      7424
      7422      7423      7425      7423      7425      7426      7423      7425      7427
      7423      7425      7437      7424      7423      7425      7425      7437      7438
      7425      7437      7439      7425      7437      7440      7426      7425      7427
      7426      7425      7437      7427      7425      7437      7428      7431      7432
      7429      7428      7430      7429      7428      7431      7430      7428      7431
      7431      7432      7433      7431      7432      7434      7432      7434      7435
      7432      7434      7436      7432      7434      7484      7433      7432      7434
      7434      7484      7485      7434      7484      7486      7434      7484      7487
      7435      7434      7436      7435      7434      7484      7436      7434      7484
      7437      7440      7441      7437      7440      7442      7437      7440      7443
      7438      7437      7439      7438      7437      7440      7439      7437      7440
      7440      7443      7444      7440      7443      7445      7441      7440      7442
      7441      7440      7443      7442      7440      7443      7443      7445      7446
      7443      7445      7447      7444      7443      7445      7445      7447      7448
      7445      7447      7449      7445      7447      7450      7446      7445      7447
      7447      7450      7451      7447      7450      7452      7448      7447      7449
      7448      7447      7450      7449      7447      7450      7450      7452      7453
      7450      7452      7454      7451      7450      7452      7452      7454      7455
      7452      7454      7456      7452      7454      7457      7453      7452      7454
      7454      7457      7458      7454      7457      7459      7455      7454      7456
      7455      7454      7457      7456      7454      7457      7457      7459      7460
      7457      7459      7461      7458      7457      7459      7459      7461      7462
      7459      7461      7463      7459      7461      7464      7460      7459      7461
      7461      7464      7465      7461      7464      7466      7462      7461      7463
      7462      7461      7464      7463      7461      7464      7464      7466      7467
      7464      7466      7468      7465      7464      7466      7466      7468      7469
      7466      7468      7470      7466      7468      7471      7467      7466      7468
      7468      7471      7472      7468      7471      7473      7468      7471      7474
      7469      7468      7470      7469      7468      7471      7470      7468      7471
      7471      7474      7475      7471      7474      7476      7471      7474      7477
      7472      7471      7473      7472      7471      7474      7473      7471      7474
      7474      7477      7478      7474      7477      7479      7474      7477      7480
      7475      7474      7476      7475      7474      7477      7476      7474      7477
      7477      7480      7481      7477      7480      7482      7477      7480      7483
      7478      7477      7479      7478      7477      7480      7479      7477      7480
      7481      7480      7482      7481      7480      7483      7482      7480      7483
      7484      7487      7488      7484      7487      7489      7484      7487      7490
      7485      7484      7486      7485      7484      7487      7486      7484      7487
      7487      7490      7491      7487      7490      7492      7487      7490      7493
      7488      7487      7489      7488      7487      7490      7489      7487      7490
      7490      7493      7494      7490      7493      7495      7490      7493      7496
      7491      7490      7492      7491      7490      7493      7492      7490      7493
      7493      7496      7497      7493      7496      7498      7493      7496      7499
      7494      7493      7495      7494      7493      7496      7495      7493      7496
      7496      7499      7500      7496      7499      7501      7496      7499      7502
      7497      7496      7498      7497      7496      7499      7498      7496      7499
      7499      7502      7503      7499      7502      7504      7499      7502      7505
      7500      7499      7501      7500      7499      7502      7501      7499      7502
      7502      7505      7506      7502      7505      7507      7502      7505      7508
      7503      7502      7504      7503      7502      7505      7504      7502      7505
      7505      7508      7509      7505      7508      7510      7505      7508      7511
      7506      7505      7507      7506      7505      7508      7507      7505      7508
      7508      7511      7512      7508      7511      7513      7508      7511      7514
      7509      7508      7510      7509      7508      7511      7510      7508      7511
      7511      7514      7515      7511      7514      7516      7511      7514      7517
      7512      7511      7513      7512      7511      7514      7513      7511      7514
      7514      7517      7518      7514      7517      7519      7514      7517      7520
      7515      7514      7516      7515      7514      7517      7516      7514      7517
      7517      7520      7521      7517      7520      7522      7517      7520      7523
      7518      7517      7519      7518      7517      7520      7519      7517      7520
      7520      7523      7524      7520      7523      7525      7520      7523      7526
      7521      7520      7522      7521      7520      7523      7522      7520      7523
      7523      7526      7527      7523      7526      7528      7523      7526      7529
      7524      7523      7525      7524      7523      7526      7525      7523      7526
      7526      7529      7530      7526      7529      7531      7526      7529      7532
      7527      7526      7528      7527      7526      7529      7528      7526      7529
      7530      7529      7531      7530      7529      7532      7531      7529      7532
      7533      7534      7535      7533      7534      7536      7533      7534      7549
      7533      7537      7538      7533      7537      7539      7533      7537      7540
      7533      7541      7542      7533      7541      7543      7533      7541      7544
      7533      7545      7546      7533      7545      7547      7533      7545      7548
      7534      7533      7537      7534      7533      7541      7534      7533      7545
      7534      7549      7550      7534      7549      7551      7534      7549      7555
      7535      7534      7536      7535      7534      7549      7536      7534      7549
      7537      7533      7541      7537      7533      7545      7538      7537      7539
      7538      7537      7540      7539      7537      7540      7541      7533      7545
      7542      7541      7543      7542      7541      7544      7543      7541      7544
      7546      7545      7547      7546      7545      7548      7547      7545      7548
      7549      7555      7552      7550      7549      7551      7550      7549      7555
      7551      7549      7555      7552      7556      7557      7553      7552      7554
      7553      7552      7555      7553      7552      7556      7554      7552      7555
      7554      7552      7556      7555      7552      7556      7556      7557      7558
      7556      7557      7559      7556      7557      7560      7557      7560      7561
      7557      7560      7562      7557      7560      7568      7558      7557      7559
      7558      7557      7560      7559      7557      7560      7560      7562      7563
      7560      7568      7569      7560      7568      7570      7560      7568      7571
      7561      7560      7562      7561      7560      7568      7562      7560      7568
      7562      7563      7564      7562      7563      7565      7563      7565      7566
      7563      7565      7567      7563      7565      7577      7564      7563      7565
      7565      7577      7578      7565      7577      7579      7565      7577      7580
      7566      7565      7567      7566      7565      7577      7567      7565      7577
      7568      7571      7572      7569      7568      7570      7569      7568      7571
      7570      7568      7571      7571      7572      7573      7571      7572      7574
      7572      7574      7575      7572      7574      7576      7572      7574      7624
      7573      7572      7574      7574      7624      7625      7574      7624      7626
      7574      7624      7627      7575      7574      7576      7575      7574      7624
      7576      7574      7624      7577      7580      7581      7577      7580      7582
      7577      7580      7583      7578      7577      7579      7578      7577      7580
      7579      7577      7580      7580      7583      7584      7580      7583      7585
      7580      7583      7586      7581      7580      7582      7581      7580      7583
      7582      7580      7583      7583      7586      7587      7583      7586      7588
      7583      7586      7589      7584      7583      7585      7584      7583      7586
      7585      7583      7586      7586      7589      7590      7586      7589      7591
      7586      7589      7592      7587      7586      7588      7587      7586      7589
      7588      7586      7589      7589      7592      7593      7589      7592      7594
      7589      7592      7595      7590      7589      7591      7590      7589      7592
      7591      7589      7592      7592      7595      7596      7592      7595      7597
      7593      7592      7594      7593      7592      7595      7594      7592      7595
      7595      7597      7598      7595      7597      7599      7596      7595      7597
      7597      7599      7600      7597      7599      7601      7597      7599      7602
      7598      7597      7599      7599      7602      7603      7599      7602      7604
      7599      7602      7605      7600      7599      7601      7600      7599      7602
      7601      7599      7602      7602      7605      7606      7602      7605      7607
      7602      7605      7608      7603      7602      7604      7603      7602      7605
      7604      7602      7605      7605      7608      7609      7605      7608      7610
      7605      7608      7611      7606      7605      7607      7606      7605      7608
      7607      7605      7608      7608      7611      7612      7608      7611      7613
      7608      7611      7614      7609      7608      7610      7609      7608      7611
      7610      7608      7611      7611      7614      7615      7611      7614      7616
      7611      7614      7617      7612      7611      7613      7612      7611      7614
      7613      7611      7614      7614      7617      7618      7614      7617      7619
      7614      7617      7620      7615      7614      7616      7615      7614      7617
      7616      7614      7617      7617      7620      7621      7617      7620      7622
      7617      7620      7623      7618      7617      7619      7618      7617      7620
      7619      7617      7620      7621      7620      7622      7621      7620      7623
      7622      7620      7623      7624      7627      7628      7624      7627      7629
      7624      7627      7630      7625      7624      7626      7625      7624      7627
      7626      7624      7627      7627      7630      7631      7627      7630      7632
      7627      7630      7633      7628      7627      7629      7628      7627      7630
      7629      7627      7630      7630      7633      7634      7630      7633      7635
      7630      7633      7636      7631      7630      7632      7631      7630      7633
      7632      7630      7633      7633      7636      7637      7633      7636      7638
      7633      7636      7639      7634      7633      7635      7634      7633      7636
      7635      7633      7636      7636      7639      7640      7636      7639      7641
      7636      7639      7642      7637      7636      7638      7637      7636      7639
      7638      7636      7639      7639      7642      7643      7639      7642      7644
      7639      7642      7645      7640      7639      7641      7640      7639      7642
      7641      7639      7642      7642      7645      7646      7642      7645      7647
      7642      7645      7648      7643      7642      7644      7643      7642      7645
      7644      7642      7645      7645      7648      7649      7645      7648      7650
      7645      7648      7651      7646      7645      7647      7646      7645      7648
      7647      7645      7648      7648      7651      7652      7648      7651      7653
      7648      7651      7654      7649      7648      7650      7649      7648      7651
      7650      7648      7651      7651      7654      7655      7651      7654      7656
      7651      7654      7657      7652      7651      7653      7652      7651      7654
      7653      7651      7654      7654      7657      7658      7654      7657      7659
      7654      7657      7660      7655      7654      7656      7655      7654      7657
      7656      7654      7657      7657      7660      7661      7657      7660      7662
      7657      7660      7663      7658      7657      7659      7658      7657      7660
      7659      7657      7660      7660      7663      7664      7660      7663      7665
      7660      7663      7666      7661      7660      7662      7661      7660      7663
      7662      7660      7663      7664      7663      7665      7664      7663      7666
      7665      7663      7666      7667      7668      7669      7667      7668      7670
      7667      7668      7671      7667      7672      7673      7667      7672      7674
      7667      7672      7675      7667      7676      7677      7667      7676      7678
      7667      7676      7679      7667      7680      7681      7667      7680      7682
      7667      7680      7683      7668      7667      7672      7668      7667      7676
      7668      7667      7680      7669      7668      7670      7669      7668      7671
      7670      7668      7671      7672      7667      7676      7672      7667      7680
      7673      7672      7674      7673      7672      7675      7674      7672      7675
      7676      7667      7680      7677      7676      7678      7677      7676      7679
      7678      7676      7679      7680      7683      7684      7680      7683      7685
      7680      7683      7690      7681      7680      7682      7681      7680      7683
      7682      7680      7683      7683      7690      7686      7684      7683      7685
      7684      7683      7690      7685      7683      7690      7686      7689      7691
      7687      7686      7688      7687      7686      7689      7687      7686      7690
      7688      7686      7689      7688      7686      7690      7689      7686      7690
      7689      7691      7692      7689      7691      7693      7689      7691      7696
      7691      7696      7694      7691      7696      7697      7691      7696      7698
      7692      7691      7693      7692      7691      7696      7693      7691      7696
      7694      7696      7697      7694      7696      7698      7694      7746      7747
      7694      7746      7748      7695      7694      7696      7695      7694      7746
      7696      7694      7746      7696      7698      7699      7696      7698      7700
      7696      7698      7702      7697      7696      7698      7698      7700      7701
      7698      7702      7703      7698      7702      7704      7699      7698      7700
      7699      7698      7702      7700      7698      7702      7702      7704      7705
      7702      7704      7706      7703      7702      7704      7704      7706      7707
      7704      7706      7708      7704      7706      7709      7705      7704      7706
      7706      7709      7710      7706      7709      7711      7706      7709      7712
      7707      7706      7708      7707      7706      7709      7708      7706      7709
      7709      7712      7713      7709      7712      7714      7709      7712      7715
      7710      7709      7711      7710      7709      7712      7711      7709      7712
      7712      7715      7716      7712      7715      7717      7712      7715      7718
      7713      7712      7714      7713      7712      7715      7714      7712      7715
      7715      7718      7719      7715      7718      7720      7715      7718      7721
      7716      7715      7717      7716      7715      7718      7717      7715      7718
      7718      7721      7722      7718      7721      7723      7718      7721      7724
      7719      7718      7720      7719      7718      7721      7720      7718      7721
      7721      7724      7725      7721      7724      7726      7721      7724      7727
      7722      7721      7723      7722      7721      7724      7723      7721      7724
      7724      7727      7728      7724      7727      7729      7724      7727      7730
      7725      7724      7726      7725      7724      7727      7726      7724      7727
      7727      7730      7731      7727      7730      7732      7727      7730      7733
      7728      7727      7729      7728      7727      7730      7729      7727      7730
      7730      7733      7734      7730      7733      7735      7730      7733      7736
      7731      7730      7732      7731      7730      7733      7732      7730      7733
      7733      7736      7737      7733      7736      7738      7733      7736      7739
      7734      7733      7735      7734      7733      7736      7735      7733      7736
      7736      7739      7740      7736      7739      7741      7736      7739      7742
      7737      7736      7738      7737      7736      7739      7738      7736      7739
      7739      7742      7743      7739      7742      7744      7739      7742      7745
      7740      7739      7741      7740      7739      7742      7741      7739      7742
      7743      7742      7744      7743      7742      7745      7744      7742      7745
      7746      7748      7749      7746      7748      7750      7746      7748      7751
      7747      7746      7748      7748      7751      7752      7748      7751      7753
      7748      7751      7754      7749      7748      7750      7749      7748      7751
      7750      7748      7751      7751      7754      7755      7751      7754      7756
      7751      7754      7757      7752      7751      7753      7752      7751      7754
      7753      7751      7754      7754      7757      7758      7754      7757      7759
      7754      7757      7760      7755      7754      7756      7755      7754      7757
      7756      7754      7757      7757      7760      7761      7757      7760      7762
      7757      7760      7763      7758      7757      7759      7758      7757      7760
      7759      7757      7760      7760      7763      7764      7760      7763      7765
      7760      7763      7766      7761      7760      7762      7761      7760      7763
      7762      7760      7763      7763      7766      7767      7763      7766      7768
      7763      7766      7769      7764      7763      7765      7764      7763      7766
      7765      7763      7766      7766      7769      7770      7766      7769      7771
      7767      7766      7768      7767      7766      7769      7768      7766      7769
      7769      7771      7772      7769      7771      7773      7770      7769      7771
      7771      7773      7774      7771      7773      7775      7771      7773      7776
      7772      7771      7773      7773      7776      7777      7773      7776      7778
      7773      7776      7779      7774      7773      7775      7774      7773      7776
      7775      7773      7776      7776      7779      7780      7776      7779      7781
      7776      7779      7782      7777      7776      7778      7777      7776      7779
      7778      7776      7779      7779      7782      7783      7779      7782      7784
      7779      7782      7785      7780      7779      7781      7780      7779      7782
      7781      7779      7782      7782      7785      7786      7782      7785      7787
      7782      7785      7788      7783      7782      7784      7783      7782      7785
      7784      7782      7785      7785      7788      7789      7785      7788      7790
      7785      7788      7791      7786      7785      7787      7786      7785      7788
      7787      7785      7788      7788      7791      7792      7788      7791      7793
      7788      7791      7794      7789      7788      7790      7789      7788      7791
      7790      7788      7791      7791      7794      7795      7791      7794      7796
      7791      7794      7797      7792      7791      7793      7792      7791      7794
      7793      7791      7794      7795      7794      7796      7795      7794      7797
      7796      7794      7797      7798      7799      7800      7798      7799      7801
      7798      7799      7802      7798      7803      7804      7798      7803      7805
      7798      7803      7806      7798      7807      7808      7798      7807      7809
      7798      7807      7810      7798      7811      7812      7798      7811      7813
      7798      7811      7814      7799      7798      7803      7799      7798      7807
      7799      7798      7811      7800      7799      7801      7800      7799      7802
      7801      7799      7802      7803      7798      7807      7803      7798      7811
      7804      7803      7805      7804      7803      7806      7805      7803      7806
      7807      7798      7811      7808      7807      7809      7808      7807      7810
      7809      7807      7810      7811      7814      7815      7811      7814      7816
      7811      7814      7821      7812      7811      7813      7812      7811      7814
      7813      7811      7814      7814      7821      7817      7815      7814      7816
      7815      7814      7821      7816      7814      7821      7817      7820      7822
      7818      7817      7819      7818      7817      7820      7818      7817      7821
      7819      7817      7820      7819      7817      7821      7820      7817      7821
      7820      7822      7823      7820      7822      7824      7820      7822      7827
      7822      7827      7825      7822      7827      7828      7822      7827      7829
      7823      7822      7824      7823      7822      7827      7824      7822      7827
      7825      7827      7828      7825      7827      7829      7825      7877      7878
      7825      7877      7879      7826      7825      7827      7826      7825      7877
      7827      7825      7877      7827      7829      7830      7827      7829      7831
      7827      7829      7833      7828      7827      7829      7829      7831      7832
      7829      7833      7834      7829      7833      7835      7830      7829      7831
      7830      7829      7833      7831      7829      7833      7833      7835      7836
      7833      7835      7837      7834      7833      7835      7835      7837      7838
      7835      7837      7839      7835      7837      7840      7836      7835      7837
      7837      7840      7841      7837      7840      7842      7837      7840      7843
      7838      7837      7839      7838      7837      7840      7839      7837      7840
      7840      7843      7844      7840      7843      7845      7840      7843      7846
      7841      7840      7842      7841      7840      7843      7842      7840      7843
      7843      7846      7847      7843      7846      7848      7843      7846      7849
      7844      7843      7845      7844      7843      7846      7845      7843      7846
      7846      7849      7850      7846      7849      7851      7846      7849      7852
      7847      7846      7848      7847      7846      7849      7848      7846      7849
      7849      7852      7853      7849      7852      7854      7849      7852      7855
      7850      7849      7851      7850      7849      7852      7851      7849      7852
      7852      7855      7856      7852      7855      7857      7852      7855      7858
      7853      7852      7854      7853      7852      7855      7854      7852      7855
      7855      7858      7859      7855      7858      7860      7855      7858      7861
      7856      7855      7857      7856      7855      7858      7857      7855      7858
      7858      7861      7862      7858      7861      7863      7858      7861      7864
      7859      7858      7860      7859      7858      7861      7860      7858      7861
      7861      7864      7865      7861      7864      7866      7861      7864      7867
      7862      7861      7863      7862      7861      7864      7863      7861      7864
      7864      7867      7868      7864      7867      7869      7864      7867      7870
      7865      7864      7866      7865      7864      7867      7866      7864      7867
      7867      7870      7871      7867      7870      7872      7867      7870      7873
      7868      7867      7869      7868      7867      7870      7869      7867      7870
      7870      7873      7874      7870      7873      7875      7870      7873      7876
      7871      7870      7872      7871      7870      7873      7872      7870      7873
      7874      7873      7875      7874      7873      7876      7875      7873      7876
      7877      7879      7880      7877      7879      7881      7877      7879      7882
      7878      7877      7879      7879      7882      7883      7879      7882      7884
      7879      7882      7885      7880      7879      7881      7880      7879      7882
      7881      7879      7882      7882      7885      7886      7882      7885      7887
      7882      7885      7888      7883      7882      7884      7883      7882      7885
      7884      7882      7885      7885      7888      7889      7885      7888      7890
      7885      7888      7891      7886      7885      7887      7886      7885      7888
      7887      7885      7888      7888      7891      7892      7888      7891      7893
      7888      7891      7894      7889      7888      7890      7889      7888      7891
      7890      7888      7891      7891      7894      7895      7891      7894      7896
      7891      7894      7897      7892      7891      7893      7892      7891      7894
      7893      7891      7894      7894      7897      7898      7894      7897      7899
      7894      7897      7900      7895      7894      7896      7895      7894      7897
      7896      7894      7897      7897      7900      7901      7897      7900      7902
      7898      7897      7899      7898      7897      7900      7899      7897      7900
      7900      7902      7903      7900      7902      7904      7901      7900      7902
      7902      7904      7905      7902      7904      7906      7902      7904      7907
      7903      7902      7904      7904      7907      7908      7904      7907      7909
      7904      7907      7910      7905      7904      7906      7905      7904      7907
      7906      7904      7907      7907      7910      7911      7907      7910      7912
      7907      7910      7913      7908      7907      7909      7908      7907      7910
      7909      7907      7910      7910      7913      7914      7910      7913      7915
      7910      7913      7916      7911      7910      7912      7911      7910      7913
      7912      7910      7913      7913      7916      7917      7913      7916      7918
      7913      7916      7919      7914      7913      7915      7914      7913      7916
      7915      7913      7916      7916      7919      7920      7916      7919      7921
      7916      7919      7922      7917      7916      7918      7917      7916      7919
      7918      7916      7919      7919      7922      7923      7919      7922      7924
      7919      7922      7925      7920      7919      7921      7920      7919      7922
      7921      7919      7922      7922      7925      7926      7922      7925      7927
      7922      7925      7928      7923      7922      7924      7923      7922      7925
      7924      7922      7925      7926      7925      7927      7926      7925      7928
      7927      7925      7928      7929      7930      7931      7929      7930      7932
      7929      7930      7933      7929      7934      7935      7929      7934      7936
      7929      7934      7937      7929      7938      7939      7929      7938      7940
      7929      7938      7941      7929      7942      7943      7929      7942      7944
      7929      7942      7945      7930      7929      7934      7930      7929      7938
      7930      7929      7942      7931      7930      7932      7931      7930      7933
      7932      7930      7933      7934      7929      7938      7934      7929      7942
      7935      7934      7936      7935      7934      7937      7936      7934      7937
      7938      7929      7942      7939      7938      7940      7939      7938      7941
      7940      7938      7941      7942      7945      7946      7942      7945      7947
      7942      7945      7952      7943      7942      7944      7943      7942      7945
      7944      7942      7945      7945      7952      7948      7946      7945      7947
      7946      7945      7952      7947      7945      7952      7948      7951      7953
      7949      7948      7950      7949      7948      7951      7949      7948      7952
      7950      7948      7951      7950      7948      7952      7951      7948      7952
      7951      7953      7954      7951      7953      7955      7951      7953      7958
      7953      7958      7956      7953      7958      7959      7953      7958      7960
      7954      7953      7955      7954      7953      7958      7955      7953      7958
      7956      7958      7959      7956      7958      7960      7956      8008      8009
      7956      8008      8010      7957      7956      7958      7957      7956      8008
      7958      7956      8008      7958      7960      7961      7958      7960      7962
      7958      7960      7964      7959      7958      7960      7960      7962      7963
      7960      7964      7965      7960      7964      7966      7961      7960      7962
      7961      7960      7964      7962      7960      7964      7964      7966      7967
      7964      7966      7968      7965      7964      7966      7966      7968      7969
      7966      7968      7970      7966      7968      7971      7967      7966      7968
      7968      7971      7972      7968      7971      7973      7968      7971      7974
      7969      7968      7970      7969      7968      7971      7970      7968      7971
      7971      7974      7975      7971      7974      7976      7971      7974      7977
      7972      7971      7973      7972      7971      7974      7973      7971      7974
      7974      7977      7978      7974      7977      7979      7974      7977      7980
      7975      7974      7976      7975      7974      7977      7976      7974      7977
      7977      7980      7981      7977      7980      7982      7977      7980      7983
      7978      7977      7979      7978      7977      7980      7979      7977      7980
      7980      7983      7984      7980      7983      7985      7980      7983      7986
      7981      7980      7982      7981      7980      7983      7982      7980      7983
      7983      7986      7987      7983      7986      7988      7983      7986      7989
      7984      7983      7985      7984      7983      7986      7985      7983      7986
      7986      7989      7990      7986      7989      7991      7986      7989      7992
      7987      7986      7988      7987      7986      7989      7988      7986      7989
      7989      7992      7993      7989      7992      7994      7989      7992      7995
      7990      7989      7991      7990      7989      7992      7991      7989      7992
      7992      7995      7996      7992      7995      7997      7992      7995      7998
      7993      7992      7994      7993      7992      7995      7994      7992      7995
      7995      7998      7999      7995      7998      8000      7995      7998      8001
      7996      7995      7997      7996      7995      7998      7997      7995      7998
      7998      8001      8002      7998      8001      8003      7998      8001      8004
      7999      7998      8000      7999      7998      8001      8000      7998      8001
      8001      8004      8005      8001      8004      8006      8001      8004      8007
      8002      8001      8003      8002      8001      8004      8003      8001      8004
      8005      8004      8006      8005      8004      8007      8006      8004      8007
      8008      8010      8011      8008      8010      8012      8008      8010      8013
      8009      8008      8010      8010      8013      8014      8010      8013      8015
      8010      8013      8016      8011      8010      8012      8011      8010      8013
      8012      8010      8013      8013      8016      8017      8013      8016      8018
      8013      8016      8019      8014      8013      8015      8014      8013      8016
      8015      8013      8016      8016      8019      8020      8016      8019      8021
      8016      8019      8022      8017      8016      8018      8017      8016      8019
      8018      8016      8019      8019      8022      8023      8019      8022      8024
      8019      8022      8025      8020      8019      8021      8020      8019      8022
      8021      8019      8022      8022      8025      8026      8022      8025      8027
      8022      8025      8028      8023      8022      8024      8023      8022      8025
      8024      8022      8025      8025      8028      8029      8025      8028      8030
      8025      8028      8031      8026      8025      8027      8026      8025      8028
      8027      8025      8028      8028      8031      8032      8028      8031      8033
      8029      8028      8030      8029      8028      8031      8030      8028      8031
      8031      8033      8034      8031      8033      8035      8032      8031      8033
      8033      8035      8036      8033      8035      8037      8033      8035      8038
      8034      8033      8035      8035      8038      8039      8035      8038      8040
      8035      8038      8041      8036      8035      8037      8036      8035      8038
      8037      8035      8038      8038      8041      8042      8038      8041      8043
      8038      8041      8044      8039      8038      8040      8039      8038      8041
      8040      8038      8041      8041      8044      8045      8041      8044      8046
      8041      8044      8047      8042      8041      8043      8042      8041      8044
      8043      8041      8044      8044      8047      8048      8044      8047      8049
      8044      8047      8050      8045      8044      8046      8045      8044      8047
      8046      8044      8047      8047      8050      8051      8047      8050      8052
      8047      8050      8053      8048      8047      8049      8048      8047      8050
      8049      8047      8050      8050      8053      8054      8050      8053      8055
      8050      8053      8056      8051      8050      8052      8051      8050      8053
      8052      8050      8053      8053      8056      8057      8053      8056      8058
      8053      8056      8059      8054      8053      8055      8054      8053      8056
      8055      8053      8056      8057      8056      8058      8057      8056      8059
      8058      8056      8059      8060      8061      8062      8060      8061      8063
      8060      8061      8076      8060      8064      8065      8060      8064      8066
      8060      8064      8067      8060      8068      8069      8060      8068      8070
      8060      8068      8071      8060      8072      8073      8060      8072      8074
      8060      8072      8075      8061      8060      8064      8061      8060      8068
      8061      8060      8072      8061      8076      8077      8061      8076      8078
      8061      8076      8082      8062      8061      8063      8062      8061      8076
      8063      8061      8076      8064      8060      8068      8064      8060      8072
      8065      8064      8066      8065      8064      8067      8066      8064      8067
      8068      8060      8072      8069      8068      8070      8069      8068      8071
      8070      8068      8071      8073      8072      8074      8073      8072      8075
      8074      8072      8075      8076      8082      8079      8077      8076      8078
      8077      8076      8082      8078      8076      8082      8079      8083      8084
      8080      8079      8081      8080      8079      8082      8080      8079      8083
      8081      8079      8082      8081      8079      8083      8082      8079      8083
      8083      8084      8085      8083      8084      8086      8083      8084      8087
      8084      8087      8088      8084      8087      8089      8084      8087      8095
      8085      8084      8086      8085      8084      8087      8086      8084      8087
      8087      8089      8090      8087      8095      8096      8087      8095      8097
      8087      8095      8098      8088      8087      8089      8088      8087      8095
      8089      8087      8095      8089      8090      8091      8089      8090      8092
      8090      8092      8093      8090      8092      8094      8090      8092      8104
      8091      8090      8092      8092      8104      8105      8092      8104      8106
      8092      8104      8107      8093      8092      8094      8093      8092      8104
      8094      8092      8104      8095      8098      8099      8096      8095      8097
      8096      8095      8098      8097      8095      8098      8098      8099      8100
      8098      8099      8101      8099      8101      8102      8099      8101      8103
      8099      8101      8151      8100      8099      8101      8101      8151      8152
      8101      8151      8153      8101      8151      8154      8102      8101      8103
      8102      8101      8151      8103      8101      8151      8104      8107      8108
      8104      8107      8109      8104      8107      8110      8105      8104      8106
      8105      8104      8107      8106      8104      8107      8107      8110      8111
      8107      8110      8112      8108      8107      8109      8108      8107      8110
      8109      8107      8110      8110      8112      8113      8110      8112      8114
      8111      8110      8112      8112      8114      8115      8112      8114      8116
      8112      8114      8117      8113      8112      8114      8114      8117      8118
      8114      8117      8119      8115      8114      8116      8115      8114      8117
      8116      8114      8117      8117      8119      8120      8117      8119      8121
      8118      8117      8119      8119      8121      8122      8119      8121      8123
      8119      8121      8124      8120      8119      8121      8121      8124      8125
      8121      8124      8126      8122      8121      8123      8122      8121      8124
      8123      8121      8124      8124      8126      8127      8124      8126      8128
      8125      8124      8126      8126      8128      8129      8126      8128      8130
      8126      8128      8131      8127      8126      8128      8128      8131      8132
      8128      8131      8133      8129      8128      8130      8129      8128      8131
      8130      8128      8131      8131      8133      8134      8131      8133      8135
      8132      8131      8133      8133      8135      8136      8133      8135      8137
      8133      8135      8138      8134      8133      8135      8135      8138      8139
      8135      8138      8140      8135      8138      8141      8136      8135      8137
      8136      8135      8138      8137      8135      8138      8138      8141      8142
      8138      8141      8143      8138      8141      8144      8139      8138      8140
      8139      8138      8141      8140      8138      8141      8141      8144      8145
      8141      8144      8146      8141      8144      8147      8142      8141      8143
      8142      8141      8144      8143      8141      8144      8144      8147      8148
      8144      8147      8149      8144      8147      8150      8145      8144      8146
      8145      8144      8147      8146      8144      8147      8148      8147      8149
      8148      8147      8150      8149      8147      8150      8151      8154      8155
      8151      8154      8156      8151      8154      8157      8152      8151      8153
      8152      8151      8154      8153      8151      8154      8154      8157      8158
      8154      8157      8159      8154      8157      8160      8155      8154      8156
      8155      8154      8157      8156      8154      8157      8157      8160      8161
      8157      8160      8162      8157      8160      8163      8158      8157      8159
      8158      8157      8160      8159      8157      8160      8160      8163      8164
      8160      8163      8165      8160      8163      8166      8161      8160      8162
      8161      8160      8163      8162      8160      8163      8163      8166      8167
      8163      8166      8168      8163      8166      8169      8164      8163      8165
      8164      8163      8166      8165      8163      8166      8166      8169      8170
      8166      8169      8171      8166      8169      8172      8167      8166      8168
      8167      8166      8169      8168      8166      8169      8169      8172      8173
      8169      8172      8174      8169      8172      8175      8170      8169      8171
      8170      8169      8172      8171      8169      8172      8172      8175      8176
      8172      8175      8177      8172      8175      8178      8173      8172      8174
      8173      8172      8175      8174      8172      8175      8175      8178      8179
      8175      8178      8180      8175      8178      8181      8176      8175      8177
      8176      8175      8178      8177      8175      8178      8178      8181      8182
      8178      8181      8183      8178      8181      8184      8179      8178      8180
      8179      8178      8181      8180      8178      8181      8181      8184      8185
      8181      8184      8186      8181      8184      8187      8182      8181      8183
      8182      8181      8184      8183      8181      8184      8184      8187      8188
      8184      8187      8189      8184      8187      8190      8185      8184      8186
      8185      8184      8187      8186      8184      8187      8187      8190      8191
      8187      8190      8192      8187      8190      8193      8188      8187      8189
      8188      8187      8190      8189      8187      8190      8190      8193      8194
      8190      8193      8195      8190      8193      8196      8191      8190      8192
      8191      8190      8193      8192      8190      8193      8193      8196      8197
      8193      8196      8198      8193      8196      8199      8194      8193      8195
      8194      8193      8196      8195      8193      8196      8197      8196      8198
      8197      8196      8199      8198      8196      8199      8200      8201      8202
      8200      8201      8203      8200      8201      8204      8200      8205      8206
      8200      8205      8207      8200      8205      8208      8200      8209      8210
      8200      8209      8211      8200      8209      8212      8200      8213      8214
      8200      8213      8215      8200      8213      8216      8201      8200      8205
      8201      8200      8209      8201      8200      8213      8202      8201      8203
      8202      8201      8204      8203      8201      8204      8205      8200      8209
      8205      8200      8213      8206      8205      8207      8206      8205      8208
      8207      8205      8208      8209      8200      8213      8210      8209      8211
      8210      8209      8212      8211      8209      8212      8213      8216      8217
      8213      8216      8218      8213      8216      8223      8214      8213      8215
      8214      8213      8216      8215      8213      8216      8216      8223      8219
      8217      8216      8218      8217      8216      8223      8218      8216      8223
      8219      8222      8224      8220      8219      8221      8220      8219      8222
      8220      8219      8223      8221      8219      8222      8221      8219      8223
      8222      8219      8223      8222      8224      8225      8222      8224      8226
      8222      8224      8229      8224      8229      8227      8224      8229      8230
      8224      8229      8231      8225      8224      8226      8225      8224      8229
      8226      8224      8229      8227      8229      8230      8227      8229      8231
      8227      8279      8280      8227      8279      8281      8228      8227      8229
      8228      8227      8279      8229      8227      8279      8229      8231      8232
      8229      8231      8233      8229      8231      8235      8230      8229      8231
      8231      8233      8234      8231      8235      8236      8231      8235      8237
      8232      8231      8233      8232      8231      8235      8233      8231      8235
      8235      8237      8238      8235      8237      8239      8236      8235      8237
      8237      8239      8240      8237      8239      8241      8237      8239      8242
      8238      8237      8239      8239      8242      8243      8239      8242      8244
      8239      8242      8245      8240      8239      8241      8240      8239      8242
      8241      8239      8242      8242      8245      8246      8242      8245      8247
      8242      8245      8248      8243      8242      8244      8243      8242      8245
      8244      8242      8245      8245      8248      8249      8245      8248      8250
      8245      8248      8251      8246      8245      8247      8246      8245      8248
      8247      8245      8248      8248      8251      8252      8248      8251      8253
      8248      8251      8254      8249      8248      8250      8249      8248      8251
      8250      8248      8251      8251      8254      8255      8251      8254      8256
      8251      8254      8257      8252      8251      8253      8252      8251      8254
      8253      8251      8254      8254      8257      8258      8254      8257      8259
      8254      8257      8260      8255      8254      8256      8255      8254      8257
      8256      8254      8257      8257      8260      8261      8257      8260      8262
      8257      8260      8263      8258      8257      8259      8258      8257      8260
      8259      8257      8260      8260      8263      8264      8260      8263      8265
      8260      8263      8266      8261      8260      8262      8261      8260      8263
      8262      8260      8263      8263      8266      8267      8263      8266      8268
      8263      8266      8269      8264      8263      8265      8264      8263      8266
      8265      8263      8266      8266      8269      8270      8266      8269      8271
      8266      8269      8272      8267      8266      8268      8267      8266      8269
      8268      8266      8269      8269      8272      8273      8269      8272      8274
      8269      8272      8275      8270      8269      8271      8270      8269      8272
      8271      8269      8272      8272      8275      8276      8272      8275      8277
      8272      8275      8278      8273      8272      8274      8273      8272      8275
      8274      8272      8275      8276      8275      8277      8276      8275      8278
      8277      8275      8278      8279      8281      8282      8279      8281      8283
      8279      8281      8284      8280      8279      8281      8281      8284      8285
      8281      8284      8286      8281      8284      8287      8282      8281      8283
      8282      8281      8284      8283      8281      8284      8284      8287      8288
      8284      8287      8289      8284      8287      8290      8285      8284      8286
      8285      8284      8287      8286      8284      8287      8287      8290      8291
      8287      8290      8292      8287      8290      8293      8288      8287      8289
      8288      8287      8290      8289      8287      8290      8290      8293      8294
      8290      8293      8295      8290      8293      8296      8291      8290      8292
      8291      8290      8293      8292      8290      8293      8293      8296      8297
      8293      8296      8298      8293      8296      8299      8294      8293      8295
      8294      8293      8296      8295      8293      8296      8296      8299      8300
      8296      8299      8301      8296      8299      8302      8297      8296      8298
      8297      8296      8299      8298      8296      8299      8299      8302      8303
      8299      8302      8304      8300      8299      8301      8300      8299      8302
      8301      8299      8302      8302      8304      8305      8302      8304      8306
      8303      8302      8304      8304      8306      8307      8304      8306      8308
      8304      8306      8309      8305      8304      8306      8306      8309      8310
      8306      8309      8311      8306      8309      8312      8307      8306      8308
      8307      8306      8309      8308      8306      8309      8309      8312      8313
      8309      8312      8314      8309      8312      8315      8310      8309      8311
      8310      8309      8312      8311      8309      8312      8312      8315      8316
      8312      8315      8317      8312      8315      8318      8313      8312      8314
      8313      8312      8315      8314      8312      8315      8315      8318      8319
      8315      8318      8320      8315      8318      8321      8316      8315      8317
      8316      8315      8318      8317      8315      8318      8318      8321      8322
      8318      8321      8323      8318      8321      8324      8319      8318      8320
      8319      8318      8321      8320      8318      8321      8321      8324      8325
      8321      8324      8326      8321      8324      8327      8322      8321      8323
      8322      8321      8324      8323      8321      8324      8324      8327      8328
      8324      8327      8329      8324      8327      8330      8325      8324      8326
      8325      8324      8327      8326      8324      8327      8328      8327      8329
      8328      8327      8330      8329      8327      8330      8331      8332      8333
      8331      8332      8334      8331      8332      8335      8331      8336      8337
      8331      8336      8338      8331      8336      8339      8331      8340      8341
      8331      8340      8342      8331      8340      8343      8331      8344      8345
      8331      8344      8346      8331      8344      8347      8332      8331      8336
      8332      8331      8340      8332      8331      8344      8333      8332      8334
      8333      8332      8335      8334      8332      8335      8336      8331      8340
      8336      8331      8344      8337      8336      8338      8337      8336      8339
      8338      8336      8339      8340      8331      8344      8341      8340      8342
      8341      8340      8343      8342      8340      8343      8344      8347      8348
      8344      8347      8349      8344      8347      8354      8345      8344      8346
      8345      8344      8347      8346      8344      8347      8347      8354      8350
      8348      8347      8349      8348      8347      8354      8349      8347      8354
      8350      8353      8355      8351      8350      8352      8351      8350      8353
      8351      8350      8354      8352      8350      8353      8352      8350      8354
      8353      8350      8354      8353      8355      8356      8353      8355      8357
      8353      8355      8360      8355      8360      8358      8355      8360      8361
      8355      8360      8362      8356      8355      8357      8356      8355      8360
      8357      8355      8360      8358      8360      8361      8358      8360      8362
      8358      8410      8411      8358      8410      8412      8359      8358      8360
      8359      8358      8410      8360      8358      8410      8360      8362      8363
      8360      8362      8364      8360      8362      8366      8361      8360      8362
      8362      8364      8365      8362      8366      8367      8362      8366      8368
      8363      8362      8364      8363      8362      8366      8364      8362      8366
      8366      8368      8369      8366      8368      8370      8367      8366      8368
      8368      8370      8371      8368      8370      8372      8368      8370      8373
      8369      8368      8370      8370      8373      8374      8370      8373      8375
      8370      8373      8376      8371      8370      8372      8371      8370      8373
      8372      8370      8373      8373      8376      8377      8373      8376      8378
      8373      8376      8379      8374      8373      8375      8374      8373      8376
      8375      8373      8376      8376      8379      8380      8376      8379      8381
      8376      8379      8382      8377      8376      8378      8377      8376      8379
      8378      8376      8379      8379      8382      8383      8379      8382      8384
      8379      8382      8385      8380      8379      8381      8380      8379      8382
      8381      8379      8382      8382      8385      8386      8382      8385      8387
      8382      8385      8388      8383      8382      8384      8383      8382      8385
      8384      8382      8385      8385      8388      8389      8385      8388      8390
      8385      8388      8391      8386      8385      8387      8386      8385      8388
      8387      8385      8388      8388      8391      8392      8388      8391      8393
      8388      8391      8394      8389      8388      8390      8389      8388      8391
      8390      8388      8391      8391      8394      8395      8391      8394      8396
      8391      8394      8397      8392      8391      8393      8392      8391      8394
      8393      8391      8394      8394      8397      8398      8394      8397      8399
      8394      8397      8400      8395      8394      8396      8395      8394      8397
      8396      8394      8397      8397      8400      8401      8397      8400      8402
      8397      8400      8403      8398      8397      8399      8398      8397      8400
      8399      8397      8400      8400      8403      8404      8400      8403      8405
      8400      8403      8406      8401      8400      8402      8401      8400      8403
      8402      8400      8403      8403      8406      8407      8403      8406      8408
      8403      8406      8409      8404      8403      8405      8404      8403      8406
      8405      8403      8406      8407      8406      8408      8407      8406      8409
      8408      8406      8409      8410      8412      8413      8410      8412      8414
      8410      8412      8415      8411      8410      8412      8412      8415      8416
      8412      8415      8417      8412      8415      8418      8413      8412      8414
      8413      8412      8415      8414      8412      8415      8415      8418      8419
      8415      8418      8420      8415      8418      8421      8416      8415      8417
      8416      8415      8418      8417      8415      8418      8418      8421      8422
      8418      8421      8423      8418      8421      8424      8419      8418      8420
      8419      8418      8421      8420      8418      8421      8421      8424      8425
      8421      8424      8426      8421      8424      8427      8422      8421      8423
      8422      8421      8424      8423      8421      8424      8424      8427      8428
      8424      8427      8429      8424      8427      8430      8425      8424      8426
      8425      8424      8427      8426      8424      8427      8427      8430      8431
      8427      8430      8432      8427      8430      8433      8428      8427      8429
      8428      8427      8430      8429      8427      8430      8430      8433      8434
      8430      8433      8435      8431      8430      8432      8431      8430      8433
      8432      8430      8433      8433      8435      8436      8433      8435      8437
      8434      8433      8435      8435      8437      8438      8435      8437      8439
      8435      8437      8440      8436      8435      8437      8437      8440      8441
      8437      8440      8442      8437      8440      8443      8438      8437      8439
      8438      8437      8440      8439      8437      8440      8440      8443      8444
      8440      8443      8445      8440      8443      8446      8441      8440      8442
      8441      8440      8443      8442      8440      8443      8443      8446      8447
      8443      8446      8448      8443      8446      8449      8444      8443      8445
      8444      8443      8446      8445      8443      8446      8446      8449      8450
      8446      8449      8451      8446      8449      8452      8447      8446      8448
      8447      8446      8449      8448      8446      8449      8449      8452      8453
      8449      8452      8454      8449      8452      8455      8450      8449      8451
      8450      8449      8452      8451      8449      8452      8452      8455      8456
      8452      8455      8457      8452      8455      8458      8453      8452      8454
      8453      8452      8455      8454      8452      8455      8455      8458      8459
      8455      8458      8460      8455      8458      8461      8456      8455      8457
      8456      8455      8458      8457      8455      8458      8459      8458      8460
      8459      8458      8461      8460      8458      8461      8462      8466      8467
      8462      8466      8468      8462      8466      8471      8463      8462      8464
      8463      8462      8465      8463      8462      8466      8464      8462      8465
      8464      8462      8466      8465      8462      8466      8466      8468      8469
      8466      8468      8470      8466      8471      8472      8466      8471      8473
      8466      8471      8477      8467      8466      8468      8467      8466      8471
      8468      8466      8471      8469      8468      8470      8471      8477      8474
      8472      8471      8473      8472      8471      8477      8473      8471      8477
      8474      8478      8479      8475      8474      8476      8475      8474      8477
      8475      8474      8478      8476      8474      8477      8476      8474      8478
      8477      8474      8478      8478      8479      8480      8478      8479      8481
      8478      8479      8482      8479      8482      8483      8479      8482      8484
      8479      8482      8490      8480      8479      8481      8480      8479      8482
      8481      8479      8482      8482      8484      8485      8482      8490      8491
      8482      8490      8492      8482      8490      8493      8483      8482      8484
      8483      8482      8490      8484      8482      8490      8484      8485      8486
      8484      8485      8487      8485      8487      8488      8485      8487      8489
      8485      8487      8499      8486      8485      8487      8487      8499      8500
      8487      8499      8501      8487      8499      8502      8488      8487      8489
      8488      8487      8499      8489      8487      8499      8490      8493      8494
      8491      8490      8492      8491      8490      8493      8492      8490      8493
      8493      8494      8495      8493      8494      8496      8494      8496      8497
      8494      8496      8498      8494      8496      8546      8495      8494      8496
      8496      8546      8547      8496      8546      8548      8496      8546      8549
      8497      8496      8498      8497      8496      8546      8498      8496      8546
      8499      8502      8503      8499      8502      8504      8499      8502      8505
      8500      8499      8501      8500      8499      8502      8501      8499      8502
      8502      8505      8506      8502      8505      8507      8503      8502      8504
      8503      8502      8505      8504      8502      8505      8505      8507      8508
      8505      8507      8509      8506      8505      8507      8507      8509      8510
      8507      8509      8511      8507      8509      8512      8508      8507      8509
      8509      8512      8513      8509      8512      8514      8510      8509      8511
      8510      8509      8512      8511      8509      8512      8512      8514      8515
      8512      8514      8516      8513      8512      8514      8514      8516      8517
      8514      8516      8518      8514      8516      8519      8515      8514      8516
      8516      8519      8520      8516      8519      8521      8517      8516      8518
      8517      8516      8519      8518      8516      8519      8519      8521      8522
      8519      8521      8523      8520      8519      8521      8521      8523      8524
      8521      8523      8525      8521      8523      8526      8522      8521      8523
      8523      8526      8527      8523      8526      8528      8524      8523      8525
      8524      8523      8526      8525      8523      8526      8526      8528      8529
      8526      8528      8530      8527      8526      8528      8528      8530      8531
      8528      8530      8532      8528      8530      8533      8529      8528      8530
      8530      8533      8534      8530      8533      8535      8530      8533      8536
      8531      8530      8532      8531      8530      8533      8532      8530      8533
      8533      8536      8537      8533      8536      8538      8533      8536      8539
      8534      8533      8535      8534      8533      8536      8535      8533      8536
      8536      8539      8540      8536      8539      8541      8536      8539      8542
      8537      8536      8538      8537      8536      8539      8538      8536      8539
      8539      8542      8543      8539      8542      8544      8539      8542      8545
      8540      8539      8541      8540      8539      8542      8541      8539      8542
      8543      8542      8544      8543      8542      8545      8544      8542      8545
      8546      8549      8550      8546      8549      8551      8546      8549      8552
      8547      8546      8548      8547      8546      8549      8548      8546      8549
      8549      8552      8553      8549      8552      8554      8549      8552      8555
      8550      8549      8551      8550      8549      8552      8551      8549      8552
      8552      8555      8556      8552      8555      8557      8552      8555      8558
      8553      8552      8554      8553      8552      8555      8554      8552      8555
      8555      8558      8559      8555      8558      8560      8555      8558      8561
      8556      8555      8557      8556      8555      8558      8557      8555      8558
      8558      8561      8562      8558      8561      8563      8558      8561      8564
      8559      8558      8560      8559      8558      8561      8560      8558      8561
      8561      8564      8565      8561      8564      8566      8561      8564      8567
      8562      8561      8563      8562      8561      8564      8563      8561      8564
      8564      8567      8568      8564      8567      8569      8564      8567      8570
      8565      8564      8566      8565      8564      8567      8566      8564      8567
      8567      8570      8571      8567      8570      8572      8567      8570      8573
      8568      8567      8569      8568      8567      8570      8569      8567      8570
      8570      8573      8574      8570      8573      8575      8570      8573      8576
      8571      8570      8572      8571      8570      8573      8572      8570      8573
      8573      8576      8577      8573      8576      8578      8573      8576      8579
      8574      8573      8575      8574      8573      8576      8575      8573      8576
      8576      8579      8580      8576      8579      8581      8576      8579      8582
      8577      8576      8578      8577      8576      8579      8578      8576      8579
      8579      8582      8583      8579      8582      8584      8579      8582      8585
      8580      8579      8581      8580      8579      8582      8581      8579      8582
      8582      8585      8586      8582      8585      8587      8582      8585      8588
      8583      8582      8584      8583      8582      8585      8584      8582      8585
      8585      8588      8589      8585      8588      8590      8585      8588      8591
      8586      8585      8587      8586      8585      8588      8587      8585      8588
      8588      8591      8592      8588      8591      8593      8588      8591      8594
      8589      8588      8590      8589      8588      8591      8590      8588      8591
      8592      8591      8593      8592      8591      8594      8593      8591      8594
      8595      8597      8598      8595      8599      8600      8595      8599      8601
      8595      8599      8602      8595      8641      8638      8595      8641      8642
      8595      8641      8643      8596      8595      8597      8596      8595      8599
      8596      8595      8641      8597      8595      8599      8597      8595      8641
      8599      8595      8641      8599      8602      8603      8599      8602      8633
      8600      8599      8601      8600      8599      8602      8601      8599      8602
      8602      8603      8604      8602      8603      8605      8602      8633      8631
      8602      8633      8634      8602      8633      8638      8603      8602      8633
      8603      8605      8606      8603      8605      8607      8603      8605      8608
      8604      8603      8605      8605      8608      8609      8605      8608      8610
      8605      8608      8631      8606      8605      8607      8606      8605      8608
      8607      8605      8608      8608      8610      8611      8608      8610      8612
      8608      8610      8620      8608      8631      8628      8608      8631      8632
      8608      8631      8633      8609      8608      8610      8609      8608      8631
      8610      8608      8631      8610      8612      8613      8610      8612      8614
      8610      8612      8615      8610      8620      8618      8610      8620      8621
      8610      8620      8625      8611      8610      8612      8611      8610      8620
      8612      8610      8620      8612      8615      8616      8612      8615      8617
      8612      8615      8618      8613      8612      8614      8613      8612      8615
      8614      8612      8615      8615      8618      8619      8615      8618      8620
      8615      8618      8644      8616      8615      8617      8616      8615      8618
      8617      8615      8618      8618      8620      8621      8618      8620      8625
      8618      8644      8645      8618      8644      8646      8618      8644      8650
      8619      8618      8620      8619      8618      8644      8620      8618      8644
      8620      8621      8622      8620      8621      8623      8620      8621      8624
      8620      8625      8626      8620      8625      8627      8620      8625      8628
      8621      8620      8625      8622      8621      8623      8622      8621      8624
      8623      8621      8624      8625      8628      8629      8625      8628      8630
      8625      8628      8631      8626      8625      8627      8626      8625      8628
      8627      8625      8628      8628      8631      8632      8628      8631      8633
      8629      8628      8630      8629      8628      8631      8630      8628      8631
      8631      8633      8634      8631      8633      8638      8632      8631      8633
      8633      8634      8635      8633      8634      8636      8633      8634      8637
      8633      8638      8639      8633      8638      8640      8633      8638      8641
      8634      8633      8638      8635      8634      8636      8635      8634      8637
      8636      8634      8637      8638      8641      8642      8638      8641      8643
      8639      8638      8640      8639      8638      8641      8640      8638      8641
      8642      8641      8643      8644      8646      8647      8644      8646      8648
      8644      8646      8649      8644      8650      8651      8644      8650      8652
      8644      8650      8653      8645      8644      8646      8645      8644      8650
      8646      8644      8650      8647      8646      8648      8647      8646      8649
      8648      8646      8649      8650      8653      8654      8650      8653      8655
      8650      8653      8656      8651      8650      8652      8651      8650      8653
      8652      8650      8653      8653      8656      8657      8653      8656      8658
      8653      8656      8659      8654      8653      8655      8654      8653      8656
      8655      8653      8656      8656      8659      8660      8656      8659      8661
      8656      8659      8665      8657      8656      8658      8657      8656      8659
      8658      8656      8659      8659      8661      8662      8659      8661      8663
      8659      8661      8664      8659      8665      8666      8659      8665      8667
      8659      8665      8668      8660      8659      8661      8660      8659      8665
      8661      8659      8665      8662      8661      8663      8662      8661      8664
      8663      8661      8664      8666      8665      8667      8666      8665      8668
      8667      8665      8668      8669      8670      8671      8669      8670      8672
      8669      8670      8673      8669      8674      8675      8669      8674      8676
      8669      8674      8677      8669      8678      8679      8669      8678      8680
      8669      8678      8681      8669      8682      8683      8669      8682      8684
      8669      8682      8685      8670      8669      8674      8670      8669      8678
      8670      8669      8682      8671      8670      8672      8671      8670      8673
      8672      8670      8673      8674      8669      8678      8674      8669      8682
      8675      8674      8676      8675      8674      8677      8676      8674      8677
      8678      8669      8682      8679      8678      8680      8679      8678      8681
      8680      8678      8681      8682      8685      8686      8682      8685      8687
      8682      8685      8691      8683      8682      8684      8683      8682      8685
      8684      8682      8685      8685      8691      8688      8686      8685      8687
      8686      8685      8691      8687      8685      8691      8688      8692      8693
      8689      8688      8690      8689      8688      8691      8689      8688      8692
      8690      8688      8691      8690      8688      8692      8691      8688      8692
      8692      8693      8694      8692      8693      8695      8692      8693      8696
      8693      8696      8697      8693      8696      8698      8693      8696      8704
      8694      8693      8695      8694      8693      8696      8695      8693      8696
      8696      8698      8699      8696      8704      8705      8696      8704      8706
      8696      8704      8707      8697      8696      8698      8697      8696      8704
      8698      8696      8704      8698      8699      8700      8698      8699      8701
      8699      8701      8702      8699      8701      8703      8699      8701      8713
      8700      8699      8701      8701      8713      8714      8701      8713      8715
      8701      8713      8716      8702      8701      8703      8702      8701      8713
      8703      8701      8713      8704      8707      8708      8705      8704      8706
      8705      8704      8707      8706      8704      8707      8707      8708      8709
      8707      8708      8710      8708      8710      8711      8708      8710      8712
      8708      8710      8758      8709      8708      8710      8710      8758      8759
      8710      8758      8760      8710      8758      8761      8711      8710      8712
      8711      8710      8758      8712      8710      8758      8713      8716      8717
      8713      8716      8718      8713      8716      8719      8714      8713      8715
      8714      8713      8716      8715      8713      8716      8716      8719      8720
      8716      8719      8721      8716      8719      8722      8717      8716      8718
      8717      8716      8719      8718      8716      8719      8719      8722      8723
      8719      8722      8724      8719      8722      8725      8720      8719      8721
      8720      8719      8722      8721      8719      8722      8722      8725      8726
      8722      8725      8727      8722      8725      8728      8723      8722      8724
      8723      8722      8725      8724      8722      8725      8725      8728      8729
      8725      8728      8730      8725      8728      8731      8726      8725      8727
      8726      8725      8728      8727      8725      8728      8728      8731      8732
      8728      8731      8733      8729      8728      8730      8729      8728      8731
      8730      8728      8731      8731      8733      8734      8731      8733      8735
      8732      8731      8733      8733      8735      8736      8733      8735      8737
      8733      8735      8738      8734      8733      8735      8735      8738      8739
      8735      8738      8740      8736      8735      8737      8736      8735      8738
      8737      8735      8738      8738      8740      8741      8738      8740      8742
      8739      8738      8740      8740      8742      8743      8740      8742      8744
      8740      8742      8745      8741      8740      8742      8742      8745      8746
      8742      8745      8747      8742      8745      8748      8743      8742      8744
      8743      8742      8745      8744      8742      8745      8745      8748      8749
      8745      8748      8750      8745      8748      8751      8746      8745      8747
      8746      8745      8748      8747      8745      8748      8748      8751      8752
      8748      8751      8753      8748      8751      8754      8749      8748      8750
      8749      8748      8751      8750      8748      8751      8751      8754      8755
      8751      8754      8756      8751      8754      8757      8752      8751      8753
      8752      8751      8754      8753      8751      8754      8755      8754      8756
      8755      8754      8757      8756      8754      8757      8758      8761      8762
      8758      8761      8763      8758      8761      8764      8759      8758      8760
      8759      8758      8761      8760      8758      8761      8761      8764      8765
      8761      8764      8766      8761      8764      8767      8762      8761      8763
      8762      8761      8764      8763      8761      8764      8764      8767      8768
      8764      8767      8769      8764      8767      8770      8765      8764      8766
      8765      8764      8767      8766      8764      8767      8767      8770      8771
      8767      8770      8772      8767      8770      8773      8768      8767      8769
      8768      8767      8770      8769      8767      8770      8770      8773      8774
      8770      8773      8775      8770      8773      8776      8771      8770      8772
      8771      8770      8773      8772      8770      8773      8773      8776      8777
      8773      8776      8778      8773      8776      8779      8774      8773      8775
      8774      8773      8776      8775      8773      8776      8776      8779      8780
      8776      8779      8781      8776      8779      8782      8777      8776      8778
      8777      8776      8779      8778      8776      8779      8779      8782      8783
      8779      8782      8784      8779      8782      8785      8780      8779      8781
      8780      8779      8782      8781      8779      8782      8782      8785      8786
      8782      8785      8787      8782      8785      8788      8783      8782      8784
      8783      8782      8785      8784      8782      8785      8785      8788      8789
      8785      8788      8790      8785      8788      8791      8786      8785      8787
      8786      8785      8788      8787      8785      8788      8788      8791      8792
      8788      8791      8793      8788      8791      8794      8789      8788      8790
      8789      8788      8791      8790      8788      8791      8791      8794      8795
      8791      8794      8796      8791      8794      8797      8792      8791      8793
      8792      8791      8794      8793      8791      8794      8794      8797      8798
      8794      8797      8799      8794      8797      8800      8795      8794      8796
      8795      8794      8797      8796      8794      8797      8797      8800      8801
      8797      8800      8802      8797      8800      8803      8798      8797      8799
      8798      8797      8800      8799      8797      8800      8800      8803      8804
      8800      8803      8805      8800      8803      8806      8801      8800      8802
      8801      8800      8803      8802      8800      8803      8804      8803      8805
      8804      8803      8806      8805      8803      8806      8807      8809      8810
      8807      8811      8812      8807      8811      8813      8807      8811      8815
      8807      8827      8823      8807      8827      8828      8807      8827      8832
      8808      8807      8809      8808      8807      8811      8808      8807      8827
      8809      8807      8811      8809      8807      8827      8811      8807      8827
      8811      8813      8814      8811      8815      8816      8811      8815      8817
      8811      8815      8819      8812      8811      8813      8812      8811      8815
      8813      8811      8815      8815      8817      8818      8815      8819      8820
      8815      8819      8821      8815      8819      8823      8816      8815      8817
      8816      8815      8819      8817      8815      8819      8819      8821      8822
      8819      8823      8824      8819      8823      8825      8819      8823      8827
      8820      8819      8821      8820      8819      8823      8821      8819      8823
      8823      8825      8826      8823      8827      8828      8823      8827      8832
      8824      8823      8825      8824      8823      8827      8825      8823      8827
      8827      8832      8829      8828      8827      8832      8829      8833      8834
      8830      8829      8831      8830      8829      8832      8830      8829      8833
      8831      8829      8832      8831      8829      8833      8832      8829      8833
      8833      8834      8835      8833      8834      8836      8833      8834      8837
      8834      8837      8838      8834      8837      8839      8834      8837      8845
      8835      8834      8836      8835      8834      8837      8836      8834      8837
      8837      8839      8840      8837      8845      8846      8837      8845      8847
      8837      8845      8848      8838      8837      8839      8838      8837      8845
      8839      8837      8845      8839      8840      8841      8839      8840      8842
      8840      8842      8843      8840      8842      8844      8840      8842      8854
      8841      8840      8842      8842      8854      8855      8842      8854      8856
      8842      8854      8857      8843      8842      8844      8843      8842      8854
      8844      8842      8854      8845      8848      8849      8846      8845      8847
      8846      8845      8848      8847      8845      8848      8848      8849      8850
      8848      8849      8851      8849      8851      8852      8849      8851      8853
      8849      8851      8901      8850      8849      8851      8851      8901      8902
      8851      8901      8903      8851      8901      8904      8852      8851      8853
      8852      8851      8901      8853      8851      8901      8854      8857      8858
      8854      8857      8859      8854      8857      8860      8855      8854      8856
      8855      8854      8857      8856      8854      8857      8857      8860      8861
      8857      8860      8862      8858      8857      8859      8858      8857      8860
      8859      8857      8860      8860      8862      8863      8860      8862      8864
      8861      8860      8862      8862      8864      8865      8862      8864      8866
      8862      8864      8867      8863      8862      8864      8864      8867      8868
      8864      8867      8869      8865      8864      8866      8865      8864      8867
      8866      8864      8867      8867      8869      8870      8867      8869      8871
      8868      8867      8869      8869      8871      8872      8869      8871      8873
      8869      8871      8874      8870      8869      8871      8871      8874      8875
      8871      8874      8876      8872      8871      8873      8872      8871      8874
      8873      8871      8874      8874      8876      8877      8874      8876      8878
      8875      8874      8876      8876      8878      8879      8876      8878      8880
      8876      8878      8881      8877      8876      8878      8878      8881      8882
      8878      8881      8883      8879      8878      8880      8879      8878      8881
      8880      8878      8881      8881      8883      8884      8881      8883      8885
      8882      8881      8883      8883      8885      8886      8883      8885      8887
      8883      8885      8888      8884      8883      8885      8885      8888      8889
      8885      8888      8890      8885      8888      8891      8886      8885      8887
      8886      8885      8888      8887      8885      8888      8888      8891      8892
      8888      8891      8893      8888      8891      8894      8889      8888      8890
      8889      8888      8891      8890      8888      8891      8891      8894      8895
      8891      8894      8896      8891      8894      8897      8892      8891      8893
      8892      8891      8894      8893      8891      8894      8894      8897      8898
      8894      8897      8899      8894      8897      8900      8895      8894      8896
      8895      8894      8897      8896      8894      8897      8898      8897      8899
      8898      8897      8900      8899      8897      8900      8901      8904      8905
      8901      8904      8906      8901      8904      8907      8902      8901      8903
      8902      8901      8904      8903      8901      8904      8904      8907      8908
      8904      8907      8909      8904      8907      8910      8905      8904      8906
      8905      8904      8907      8906      8904      8907      8907      8910      8911
      8907      8910      8912      8907      8910      8913      8908      8907      8909
      8908      8907      8910      8909      8907      8910      8910      8913      8914
      8910      8913      8915      8910      8913      8916      8911      8910      8912
      8911      8910      8913      8912      8910      8913      8913      8916      8917
      8913      8916      8918      8913      8916      8919      8914      8913      8915
      8914      8913      8916      8915      8913      8916      8916      8919      8920
      8916      8919      8921      8916      8919      8922      8917      8916      8918
      8917      8916      8919      8918      8916      8919      8919      8922      8923
      8919      8922      8924      8919      8922      8925      8920      8919      8921
      8920      8919      8922      8921      8919      8922      8922      8925      8926
      8922      8925      8927      8922      8925      8928      8923      8922      8924
      8923      8922      8925      8924      8922      8925      8925      8928      8929
      8925      8928      8930      8925      8928      8931      8926      8925      8927
      8926      8925      8928      8927      8925      8928      8928      8931      8932
      8928      8931      8933      8928      8931      8934      8929      8928      8930
      8929      8928      8931      8930      8928      8931      8931      8934      8935
      8931      8934      8936      8931      8934      8937      8932      8931      8933
      8932      8931      8934      8933      8931      8934      8934      8937      8938
      8934      8937      8939      8934      8937      8940      8935      8934      8936
      8935      8934      8937      8936      8934      8937      8937      8940      8941
      8937      8940      8942      8937      8940      8943      8938      8937      8939
      8938      8937      8940      8939      8937      8940      8940      8943      8944
      8940      8943      8945      8940      8943      8946      8941      8940      8942
      8941      8940      8943      8942      8940      8943      8943      8946      8947
      8943      8946      8948      8943      8946      8949      8944      8943      8945
      8944      8943      8946      8945      8943      8946      8947      8946      8948
      8947      8946      8949      8948      8946      8949      8950      8951      8952
      8950      8951      8953      8950      8951      8954      8950      8955      8956
      8950      8955      8957      8950      8955      8958      8950      8959      8960
      8950      8959      8961      8950      8959      8962      8950      8963      8964
      8950      8963      8965      8950      8963      8966      8951      8950      8955
      8951      8950      8959      8951      8950      8963      8952      8951      8953
      8952      8951      8954      8953      8951      8954      8955      8950      8959
      8955      8950      8963      8956      8955      8957      8956      8955      8958
      8957      8955      8958      8959      8950      8963      8960      8959      8961
      8960      8959      8962      8961      8959      8962      8963      8966      8967
      8963      8966      8968      8963      8966      8973      8964      8963      8965
      8964      8963      8966      8965      8963      8966      8966      8973      8969
      8967      8966      8968      8967      8966      8973      8968      8966      8973
      8969      8972      8974      8970      8969      8971      8970      8969      8972
      8970      8969      8973      8971      8969      8972      8971      8969      8973
      8972      8969      8973      8972      8974      8975      8972      8974      8976
      8972      8974      8979      8974      8979      8977      8974      8979      8980
      8974      8979      8981      8975      8974      8976      8975      8974      8979
      8976      8974      8979      8977      8979      8980      8977      8979      8981
      8977      9029      9030      8977      9029      9031      8978      8977      8979
      8978      8977      9029      8979      8977      9029      8979      8981      8982
      8979      8981      8983      8979      8981      8985      8980      8979      8981
      8981      8983      8984      8981      8985      8986      8981      8985      8987
      8982      8981      8983      8982      8981      8985      8983      8981      8985
      8985      8987      8988      8985      8987      8989      8986      8985      8987
      8987      8989      8990      8987      8989      8991      8987      8989      8992
      8988      8987      8989      8989      8992      8993      8989      8992      8994
      8989      8992      8995      8990      8989      8991      8990      8989      8992
      8991      8989      8992      8992      8995      8996      8992      8995      8997
      8992      8995      8998      8993      8992      8994      8993      8992      8995
      8994      8992      8995      8995      8998      8999      8995      8998      9000
      8995      8998      9001      8996      8995      8997      8996      8995      8998
      8997      8995      8998      8998      9001      9002      8998      9001      9003
      8998      9001      9004      8999      8998      9000      8999      8998      9001
      9000      8998      9001      9001      9004      9005      9001      9004      9006
      9001      9004      9007      9002      9001      9003      9002      9001      9004
      9003      9001      9004      9004      9007      9008      9004      9007      9009
      9004      9007      9010      9005      9004      9006      9005      9004      9007
      9006      9004      9007      9007      9010      9011      9007      9010      9012
      9007      9010      9013      9008      9007      9009      9008      9007      9010
      9009      9007      9010      9010      9013      9014      9010      9013      9015
      9010      9013      9016      9011      9010      9012      9011      9010      9013
      9012      9010      9013      9013      9016      9017      9013      9016      9018
      9013      9016      9019      9014      9013      9015      9014      9013      9016
      9015      9013      9016      9016      9019      9020      9016      9019      9021
      9016      9019      9022      9017      9016      9018      9017      9016      9019
      9018      9016      9019      9019      9022      9023      9019      9022      9024
      9019      9022      9025      9020      9019      9021      9020      9019      9022
      9021      9019      9022      9022      9025      9026      9022      9025      9027
      9022      9025      9028      9023      9022      9024      9023      9022      9025
      9024      9022      9025      9026      9025      9027      9026      9025      9028
      9027      9025      9028      9029      9031      9032      9029      9031      9033
      9029      9031      9034      9030      9029      9031      9031      9034      9035
      9031      9034      9036      9031      9034      9037      9032      9031      9033
      9032      9031      9034      9033      9031      9034      9034      9037      9038
      9034      9037      9039      9034      9037      9040      9035      9034      9036
      9035      9034      9037      9036      9034      9037      9037      9040      9041
      9037      9040      9042      9037      9040      9043      9038      9037      9039
      9038      9037      9040      9039      9037      9040      9040      9043      9044
      9040      9043      9045      9040      9043      9046      9041      9040      9042
      9041      9040      9043      9042      9040      9043      9043      9046      9047
      9043      9046      9048      9043      9046      9049      9044      9043      9045
      9044      9043      9046      9045      9043      9046      9046      9049      9050
      9046      9049      9051      9046      9049      9052      9047      9046      9048
      9047      9046      9049      9048      9046      9049      9049      9052      9053
      9049      9052      9054      9050      9049      9051      9050      9049      9052
      9051      9049      9052      9052      9054      9055      9052      9054      9056
      9053      9052      9054      9054      9056      9057      9054      9056      9058
      9054      9056      9059      9055      9054      9056      9056      9059      9060
      9056      9059      9061      9056      9059      9062      9057      9056      9058
      9057      9056      9059      9058      9056      9059      9059      9062      9063
      9059      9062      9064      9059      9062      9065      9060      9059      9061
      9060      9059      9062      9061      9059      9062      9062      9065      9066
      9062      9065      9067      9062      9065      9068      9063      9062      9064
      9063      9062      9065      9064      9062      9065      9065      9068      9069
      9065      9068      9070      9065      9068      9071      9066      9065      9067
      9066      9065      9068      9067      9065      9068      9068      9071      9072
      9068      9071      9073      9068      9071      9074      9069      9068      9070
      9069      9068      9071      9070      9068      9071      9071      9074      9075
      9071      9074      9076      9071      9074      9077      9072      9071      9073
      9072      9071      9074      9073      9071      9074      9074      9077      9078
      9074      9077      9079      9074      9077      9080      9075      9074      9076
      9075      9074      9077      9076      9074      9077      9078      9077      9079
      9078      9077      9080      9079      9077      9080      9081      9085      9086
      9081      9085      9087      9081      9085      9088      9082      9081      9083
      9082      9081      9084      9082      9081      9085      9083      9081      9084
      9083      9081      9085      9084      9081      9085      9085      9088      9089
      9085      9088      9090      9085      9088      9094      9086      9085      9087
      9086      9085      9088      9087      9085      9088      9088      9094      9091
      9089      9088      9090      9089      9088      9094      9090      9088      9094
      9091      9095      9096      9092      9091      9093      9092      9091      9094
      9092      9091      9095      9093      9091      9094      9093      9091      9095
      9094      9091      9095      9095      9096      9097      9095      9096      9098
      9095      9096      9099      9096      9099      9100      9096      9099      9101
      9096      9099      9107      9097      9096      9098      9097      9096      9099
      9098      9096      9099      9099      9101      9102      9099      9107      9108
      9099      9107      9109      9099      9107      9110      9100      9099      9101
      9100      9099      9107      9101      9099      9107      9101      9102      9103
      9101      9102      9104      9102      9104      9105      9102      9104      9106
      9102      9104      9116      9103      9102      9104      9104      9116      9117
      9104      9116      9118      9104      9116      9119      9105      9104      9106
      9105      9104      9116      9106      9104      9116      9107      9110      9111
      9108      9107      9109      9108      9107      9110      9109      9107      9110
      9110      9111      9112      9110      9111      9113      9111      9113      9114
      9111      9113      9115      9111      9113      9163      9112      9111      9113
      9113      9163      9164      9113      9163      9165      9113      9163      9166
      9114      9113      9115      9114      9113      9163      9115      9113      9163
      9116      9119      9120      9116      9119      9121      9116      9119      9122
      9117      9116      9118      9117      9116      9119      9118      9116      9119
      9119      9122      9123      9119      9122      9124      9120      9119      9121
      9120      9119      9122      9121      9119      9122      9122      9124      9125
      9122      9124      9126      9123      9122      9124      9124      9126      9127
      9124      9126      9128      9124      9126      9129      9125      9124      9126
      9126      9129      9130      9126      9129      9131      9127      9126      9128
      9127      9126      9129      9128      9126      9129      9129      9131      9132
      9129      9131      9133      9130      9129      9131      9131      9133      9134
      9131      9133      9135      9131      9133      9136      9132      9131      9133
      9133      9136      9137      9133      9136      9138      9134      9133      9135
      9134      9133      9136      9135      9133      9136      9136      9138      9139
      9136      9138      9140      9137      9136      9138      9138      9140      9141
      9138      9140      9142      9138      9140      9143      9139      9138      9140
      9140      9143      9144      9140      9143      9145      9141      9140      9142
      9141      9140      9143      9142      9140      9143      9143      9145      9146
      9143      9145      9147      9144      9143      9145      9145      9147      9148
      9145      9147      9149      9145      9147      9150      9146      9145      9147
      9147      9150      9151      9147      9150      9152      9147      9150      9153
      9148      9147      9149      9148      9147      9150      9149      9147      9150
      9150      9153      9154      9150      9153      9155      9150      9153      9156
      9151      9150      9152      9151      9150      9153      9152      9150      9153
      9153      9156      9157      9153      9156      9158      9153      9156      9159
      9154      9153      9155      9154      9153      9156      9155      9153      9156
      9156      9159      9160      9156      9159      9161      9156      9159      9162
      9157      9156      9158      9157      9156      9159      9158      9156      9159
      9160      9159      9161      9160      9159      9162      9161      9159      9162
      9163      9166      9167      9163      9166      9168      9163      9166      9169
      9164      9163      9165      9164      9163      9166      9165      9163      9166
      9166      9169      9170      9166      9169      9171      9166      9169      9172
      9167      9166      9168      9167      9166      9169      9168      9166      9169
      9169      9172      9173      9169      9172      9174      9169      9172      9175
      9170      9169      9171      9170      9169      9172      9171      9169      9172
      9172      9175      9176      9172      9175      9177      9172      9175      9178
      9173      9172      9174      9173      9172      9175      9174      9172      9175
      9175      9178      9179      9175      9178      9180      9175      9178      9181
      9176      9175      9177      9176      9175      9178      9177      9175      9178
      9178      9181      9182      9178      9181      9183      9178      9181      9184
      9179      9178      9180      9179      9178      9181      9180      9178      9181
      9181      9184      9185      9181      9184      9186      9181      9184      9187
      9182      9181      9183      9182      9181      9184      9183      9181      9184
      9184      9187      9188      9184      9187      9189      9184      9187      9190
      9185      9184      9186      9185      9184      9187      9186      9184      9187
      9187      9190      9191      9187      9190      9192      9187      9190      9193
      9188      9187      9189      9188      9187      9190      9189      9187      9190
      9190      9193      9194      9190      9193      9195      9190      9193      9196
      9191      9190      9192      9191      9190      9193      9192      9190      9193
      9193      9196      9197      9193      9196      9198      9193      9196      9199
      9194      9193      9195      9194      9193      9196      9195      9193      9196
      9196      9199      9200      9196      9199      9201      9196      9199      9202
      9197      9196      9198      9197      9196      9199      9198      9196      9199
      9199      9202      9203      9199      9202      9204      9199      9202      9205
      9200      9199      9201      9200      9199      9202      9201      9199      9202
      9202      9205      9206      9202      9205      9207      9202      9205      9208
      9203      9202      9204      9203      9202      9205      9204      9202      9205
      9205      9208      9209      9205      9208      9210      9205      9208      9211
      9206      9205      9207      9206      9205      9208      9207      9205      9208
      9209      9208      9210      9209      9208      9211      9210      9208      9211
      9212      9214      9215      9212      9216      9217      9212      9216      9218
      9212      9216      9219      9212      9258      9255      9212      9258      9259
      9212      9258      9260      9213      9212      9214      9213      9212      9216
      9213      9212      9258      9214      9212      9216      9214      9212      9258
      9216      9212      9258      9216      9219      9220      9216      9219      9250
      9217      9216      9218      9217      9216      9219      9218      9216      9219
      9219      9220      9221      9219      9220      9222      9219      9250      9248
      9219      9250      9251      9219      9250      9255      9220      9219      9250
      9220      9222      9223      9220      9222      9224      9220      9222      9225
      9221      9220      9222      9222      9225      9226      9222      9225      9227
      9222      9225      9248      9223      9222      9224      9223      9222      9225
      9224      9222      9225      9225      9227      9228      9225      9227      9229
      9225      9227      9237      9225      9248      9245      9225      9248      9249
      9225      9248      9250      9226      9225      9227      9226      9225      9248
      9227      9225      9248      9227      9229      9230      9227      9229      9231
      9227      9229      9232      9227      9237      9235      9227      9237      9238
      9227      9237      9242      9228      9227      9229      9228      9227      9237
      9229      9227      9237      9229      9232      9233      9229      9232      9234
      9229      9232      9235      9230      9229      9231      9230      9229      9232
      9231      9229      9232      9232      9235      9236      9232      9235      9237
      9232      9235      9261      9233      9232      9234      9233      9232      9235
      9234      9232      9235      9235      9237      9238      9235      9237      9242
      9235      9261      9262      9235      9261      9263      9235      9261      9267
      9236      9235      9237      9236      9235      9261      9237      9235      9261
      9237      9238      9239      9237      9238      9240      9237      9238      9241
      9237      9242      9243      9237      9242      9244      9237      9242      9245
      9238      9237      9242      9239      9238      9240      9239      9238      9241
      9240      9238      9241      9242      9245      9246      9242      9245      9247
      9242      9245      9248      9243      9242      9244      9243      9242      9245
      9244      9242      9245      9245      9248      9249      9245      9248      9250
      9246      9245      9247      9246      9245      9248      9247      9245      9248
      9248      9250      9251      9248      9250      9255      9249      9248      9250
      9250      9251      9252      9250      9251      9253      9250      9251      9254
      9250      9255      9256      9250      9255      9257      9250      9255      9258
      9251      9250      9255      9252      9251      9253      9252      9251      9254
      9253      9251      9254      9255      9258      9259      9255      9258      9260
      9256      9255      9257      9256      9255      9258      9257      9255      9258
      9259      9258      9260      9261      9263      9264      9261      9263      9265
      9261      9263      9266      9261      9267      9268      9261      9267      9269
      9261      9267      9270      9262      9261      9263      9262      9261      9267
      9263      9261      9267      9264      9263      9265      9264      9263      9266
      9265      9263      9266      9267      9270      9271      9267      9270      9272
      9267      9270      9273      9268      9267      9269      9268      9267      9270
      9269      9267      9270      9270      9273      9274      9270      9273      9275
      9270      9273      9276      9271      9270      9272      9271      9270      9273
      9272      9270      9273      9273      9276      9277      9273      9276      9278
      9273      9276      9282      9274      9273      9275      9274      9273      9276
      9275      9273      9276      9276      9278      9279      9276      9278      9280
      9276      9278      9281      9276      9282      9283      9276      9282      9284
      9276      9282      9285      9277      9276      9278      9277      9276      9282
      9278      9276      9282      9279      9278      9280      9279      9278      9281
      9280      9278      9281      9283      9282      9284      9283      9282      9285
      9284      9282      9285      9286      9290      9291      9286      9290      9292
      9286      9290      9293      9287      9286      9288      9287      9286      9289
      9287      9286      9290      9288      9286      9289      9288      9286      9290
      9289      9286      9290      9290      9293      9294      9290      9293      9295
      9290      9293      9299      9291      9290      9292      9291      9290      9293
      9292      9290      9293      9293      9299      9296      9294      9293      9295
      9294      9293      9299      9295      9293      9299      9296      9300      9301
      9297      9296      9298      9297      9296      9299      9297      9296      9300
      9298      9296      9299      9298      9296      9300      9299      9296      9300
      9300      9301      9302      9300      9301      9303      9300      9301      9304
      9301      9304      9305      9301      9304      9306      9301      9304      9312
      9302      9301      9303      9302      9301      9304      9303      9301      9304
      9304      9306      9307      9304      9312      9313      9304      9312      9314
      9304      9312      9315      9305      9304      9306      9305      9304      9312
      9306      9304      9312      9306      9307      9308      9306      9307      9309
      9307      9309      9310      9307      9309      9311      9307      9309      9321
      9308      9307      9309      9309      9321      9322      9309      9321      9323
      9309      9321      9324      9310      9309      9311      9310      9309      9321
      9311      9309      9321      9312      9315      9316      9313      9312      9314
      9313      9312      9315      9314      9312      9315      9315      9316      9317
      9315      9316      9318      9316      9318      9319      9316      9318      9320
      9316      9318      9368      9317      9316      9318      9318      9368      9369
      9318      9368      9370      9318      9368      9371      9319      9318      9320
      9319      9318      9368      9320      9318      9368      9321      9324      9325
      9321      9324      9326      9321      9324      9327      9322      9321      9323
      9322      9321      9324      9323      9321      9324      9324      9327      9328
      9324      9327      9329      9325      9324      9326      9325      9324      9327
      9326      9324      9327      9327      9329      9330      9327      9329      9331
      9328      9327      9329      9329      9331      9332      9329      9331      9333
      9329      9331      9334      9330      9329      9331      9331      9334      9335
      9331      9334      9336      9332      9331      9333      9332      9331      9334
      9333      9331      9334      9334      9336      9337      9334      9336      9338
      9335      9334      9336      9336      9338      9339      9336      9338      9340
      9336      9338      9341      9337      9336      9338      9338      9341      9342
      9338      9341      9343      9339      9338      9340      9339      9338      9341
      9340      9338      9341      9341      9343      9344      9341      9343      9345
      9342      9341      9343      9343      9345      9346      9343      9345      9347
      9343      9345      9348      9344      9343      9345      9345      9348      9349
      9345      9348      9350      9346      9345      9347      9346      9345      9348
      9347      9345      9348      9348      9350      9351      9348      9350      9352
      9349      9348      9350      9350      9352      9353      9350      9352      9354
      9350      9352      9355      9351      9350      9352      9352      9355      9356
      9352      9355      9357      9352      9355      9358      9353      9352      9354
      9353      9352      9355      9354      9352      9355      9355      9358      9359
      9355      9358      9360      9355      9358      9361      9356      9355      9357
      9356      9355      9358      9357      9355      9358      9358      9361      9362
      9358      9361      9363      9358      9361      9364      9359      9358      9360
      9359      9358      9361      9360      9358      9361      9361      9364      9365
      9361      9364      9366      9361      9364      9367      9362      9361      9363
      9362      9361      9364      9363      9361      9364      9365      9364      9366
      9365      9364      9367      9366      9364      9367      9368      9371      9372
      9368      9371      9373      9368      9371      9374      9369      9368      9370
      9369      9368      9371      9370      9368      9371      9371      9374      9375
      9371      9374      9376      9371      9374      9377      9372      9371      9373
      9372      9371      9374      9373      9371      9374      9374      9377      9378
      9374      9377      9379      9374      9377      9380      9375      9374      9376
      9375      9374      9377      9376      9374      9377      9377      9380      9381
      9377      9380      9382      9377      9380      9383      9378      9377      9379
      9378      9377      9380      9379      9377      9380      9380      9383      9384
      9380      9383      9385      9380      9383      9386      9381      9380      9382
      9381      9380      9383      9382      9380      9383      9383      9386      9387
      9383      9386      9388      9383      9386      9389      9384      9383      9385
      9384      9383      9386      9385      9383      9386      9386      9389      9390
      9386      9389      9391      9386      9389      9392      9387      9386      9388
      9387      9386      9389      9388      9386      9389      9389      9392      9393
      9389      9392      9394      9389      9392      9395      9390      9389      9391
      9390      9389      9392      9391      9389      9392      9392      9395      9396
      9392      9395      9397      9392      9395      9398      9393      9392      9394
      9393      9392      9395      9394      9392      9395      9395      9398      9399
      9395      9398      9400      9395      9398      9401      9396      9395      9397
      9396      9395      9398      9397      9395      9398      9398      9401      9402
      9398      9401      9403      9398      9401      9404      9399      9398      9400
      9399      9398      9401      9400      9398      9401      9401      9404      9405
      9401      9404      9406      9401      9404      9407      9402      9401      9403
      9402      9401      9404      9403      9401      9404      9404      9407      9408
      9404      9407      9409      9404      9407      9410      9405      9404      9406
      9405      9404      9407      9406      9404      9407      9407      9410      9411
      9407      9410      9412      9407      9410      9413      9408      9407      9409
      9408      9407      9410      9409      9407      9410      9410      9413      9414
      9410      9413      9415      9410      9413      9416      9411      9410      9412
      9411      9410      9413      9412      9410      9413      9414      9413      9415
      9414      9413      9416      9415      9413      9416      9417      9418      9419
      9417      9418      9420      9417      9418      9421      9417      9422      9423
      9417      9422      9424      9417      9422      9425      9417      9426      9427
      9417      9426      9428      9417      9426      9429      9417      9430      9431
      9417      9430      9432      9417      9430      9433      9418      9417      9422
      9418      9417      9426      9418      9417      9430      9419      9418      9420
      9419      9418      9421      9420      9418      9421      9422      9417      9426
      9422      9417      9430      9423      9422      9424      9423      9422      9425
      9424      9422      9425      9426      9417      9430      9427      9426      9428
      9427      9426      9429      9428      9426      9429      9430      9433      9434
      9430      9433      9435      9430      9433      9439      9431      9430      9432
      9431      9430      9433      9432      9430      9433      9433      9439      9436
      9434      9433      9435      9434      9433      9439      9435      9433      9439
      9436      9440      9441      9437      9436      9438      9437      9436      9439
      9437      9436      9440      9438      9436      9439      9438      9436      9440
      9439      9436      9440      9440      9441      9442      9440      9441      9443
      9440      9441      9444      9441      9444      9445      9441      9444      9446
      9441      9444      9452      9442      9441      9443      9442      9441      9444
      9443      9441      9444      9444      9446      9447      9444      9452      9453
      9444      9452      9454      9444      9452      9455      9445      9444      9446
      9445      9444      9452      9446      9444      9452      9446      9447      9448
      9446      9447      9449      9447      9449      9450      9447      9449      9451
      9447      9449      9461      9448      9447      9449      9449      9461      9462
      9449      9461      9463      9449      9461      9464      9450      9449      9451
      9450      9449      9461      9451      9449      9461      9452      9455      9456
      9453      9452      9454      9453      9452      9455      9454      9452      9455
      9455      9456      9457      9455      9456      9458      9456      9458      9459
      9456      9458      9460      9456      9458      9506      9457      9456      9458
      9458      9506      9507      9458      9506      9508      9458      9506      9509
      9459      9458      9460      9459      9458      9506      9460      9458      9506
      9461      9464      9465      9461      9464      9466      9461      9464      9467
      9462      9461      9463      9462      9461      9464      9463      9461      9464
      9464      9467      9468      9464      9467      9469      9464      9467      9470
      9465      9464      9466      9465      9464      9467      9466      9464      9467
      9467      9470      9471      9467      9470      9472      9467      9470      9473
      9468      9467      9469      9468      9467      9470      9469      9467      9470
      9470      9473      9474      9470      9473      9475      9470      9473      9476
      9471      9470      9472      9471      9470      9473      9472      9470      9473
      9473      9476      9477      9473      9476      9478      9473      9476      9479
      9474      9473      9475      9474      9473      9476      9475      9473      9476
      9476      9479      9480      9476      9479      9481      9477      9476      9478
      9477      9476      9479      9478      9476      9479      9479      9481      9482
      9479      9481      9483      9480      9479      9481      9481      9483      9484
      9481      9483      9485      9481      9483      9486      9482      9481      9483
      9483      9486      9487      9483      9486      9488      9484      9483      9485
      9484      9483      9486      9485      9483      9486      9486      9488      9489
      9486      9488      9490      9487      9486      9488      9488      9490      9491
      9488      9490      9492      9488      9490      9493      9489      9488      9490
      9490      9493      9494      9490      9493      9495      9490      9493      9496
      9491      9490      9492      9491      9490      9493      9492      9490      9493
      9493      9496      9497      9493      9496      9498      9493      9496      9499
      9494      9493      9495      9494      9493      9496      9495      9493      9496
      9496      9499      9500      9496      9499      9501      9496      9499      9502
      9497      9496      9498      9497      9496      9499      9498      9496      9499
      9499      9502      9503      9499      9502      9504      9499      9502      9505
      9500      9499      9501      9500      9499      9502      9501      9499      9502
      9503      9502      9504      9503      9502      9505      9504      9502      9505
      9506      9509      9510      9506      9509      9511      9506      9509      9512
      9507      9506      9508      9507      9506      9509      9508      9506      9509
      9509      9512      9513      9509      9512      9514      9509      9512      9515
      9510      9509      9511      9510      9509      9512      9511      9509      9512
      9512      9515      9516      9512      9515      9517      9512      9515      9518
      9513      9512      9514      9513      9512      9515      9514      9512      9515
      9515      9518      9519      9515      9518      9520      9515      9518      9521
      9516      9515      9517      9516      9515      9518      9517      9515      9518
      9518      9521      9522      9518      9521      9523      9518      9521      9524
      9519      9518      9520      9519      9518      9521      9520      9518      9521
      9521      9524      9525      9521      9524      9526      9521      9524      9527
      9522      9521      9523      9522      9521      9524      9523      9521      9524
      9524      9527      9528      9524      9527      9529      9524      9527      9530
      9525      9524      9526      9525      9524      9527      9526      9524      9527
      9527      9530      9531      9527      9530      9532      9527      9530      9533
      9528      9527      9529      9528      9527      9530      9529      9527      9530
      9530      9533      9534      9530      9533      9535      9530      9533      9536
      9531      9530      9532      9531      9530      9533      9532      9530      9533
      9533      9536      9537      9533      9536      9538      9533      9536      9539
      9534      9533      9535      9534      9533      9536      9535      9533      9536
      9536      9539      9540      9536      9539      9541      9536      9539      9542
      9537      9536      9538      9537      9536      9539      9538      9536      9539
      9539      9542      9543      9539      9542      9544      9539      9542      9545
      9540      9539      9541      9540      9539      9542      9541      9539      9542
      9542      9545      9546      9542      9545      9547      9542      9545      9548
      9543      9542      9544      9543      9542      9545      9544      9542      9545
      9545      9548      9549      9545      9548      9550      9545      9548      9551
      9546      9545      9547      9546      9545      9548      9547      9545      9548
      9548      9551      9552      9548      9551      9553      9548      9551      9554
      9549      9548      9550      9549      9548      9551      9550      9548      9551
      9552      9551      9553      9552      9551      9554      9553      9551      9554
      9555      9556      9557      9555      9556      9558      9555      9556      9571
      9555      9559      9560      9555      9559      9561      9555      9559      9562
      9555      9563      9564      9555      9563      9565      9555      9563      9566
      9555      9567      9568      9555      9567      9569      9555      9567      9570
      9556      9555      9559      9556      9555      9563      9556      9555      9567
      9556      9571      9572      9556      9571      9573      9556      9571      9577
      9557      9556      9558      9557      9556      9571      9558      9556      9571
      9559      9555      9563      9559      9555      9567      9560      9559      9561
      9560      9559      9562      9561      9559      9562      9563      9555      9567
      9564      9563      9565      9564      9563      9566      9565      9563      9566
      9568      9567      9569      9568      9567      9570      9569      9567      9570
      9571      9577      9574      9572      9571      9573      9572      9571      9577
      9573      9571      9577      9574      9578      9579      9575      9574      9576
      9575      9574      9577      9575      9574      9578      9576      9574      9577
      9576      9574      9578      9577      9574      9578      9578      9579      9580
      9578      9579      9581      9578      9579      9582      9579      9582      9583
      9579      9582      9584      9579      9582      9590      9580      9579      9581
      9580      9579      9582      9581      9579      9582      9582      9584      9585
      9582      9590      9591      9582      9590      9592      9582      9590      9593
      9583      9582      9584      9583      9582      9590      9584      9582      9590
      9584      9585      9586      9584      9585      9587      9585      9587      9588
      9585      9587      9589      9585      9587      9599      9586      9585      9587
      9587      9599      9600      9587      9599      9601      9587      9599      9602
      9588      9587      9589      9588      9587      9599      9589      9587      9599
      9590      9593      9594      9591      9590      9592      9591      9590      9593
      9592      9590      9593      9593      9594      9595      9593      9594      9596
      9594      9596      9597      9594      9596      9598      9594      9596      9646
      9595      9594      9596      9596      9646      9647      9596      9646      9648
      9596      9646      9649      9597      9596      9598      9597      9596      9646
      9598      9596      9646      9599      9602      9603      9599      9602      9604
      9599      9602      9605      9600      9599      9601      9600      9599      9602
      9601      9599      9602      9602      9605      9606      9602      9605      9607
      9603      9602      9604      9603      9602      9605      9604      9602      9605
      9605      9607      9608      9605      9607      9609      9606      9605      9607
      9607      9609      9610      9607      9609      9611      9607      9609      9612
      9608      9607      9609      9609      9612      9613      9609      9612      9614
      9610      9609      9611      9610      9609      9612      9611      9609      9612
      9612      9614      9615      9612      9614      9616      9613      9612      9614
      9614      9616      9617      9614      9616      9618      9614      9616      9619
      9615      9614      9616      9616      9619      9620      9616      9619      9621
      9617      9616      9618      9617      9616      9619      9618      9616      9619
      9619      9621      9622      9619      9621      9623      9620      9619      9621
      9621      9623      9624      9621      9623      9625      9621      9623      9626
      9622      9621      9623      9623      9626      9627      9623      9626      9628
      9624      9623      9625      9624      9623      9626      9625      9623      9626
      9626      9628      9629      9626      9628      9630      9627      9626      9628
      9628      9630      9631      9628      9630      9632      9628      9630      9633
      9629      9628      9630      9630      9633      9634      9630      9633      9635
      9630      9633      9636      9631      9630      9632      9631      9630      9633
      9632      9630      9633      9633      9636      9637      9633      9636      9638
      9633      9636      9639      9634      9633      9635      9634      9633      9636
      9635      9633      9636      9636      9639      9640      9636      9639      9641
      9636      9639      9642      9637      9636      9638      9637      9636      9639
      9638      9636      9639      9639      9642      9643      9639      9642      9644
      9639      9642      9645      9640      9639      9641      9640      9639      9642
      9641      9639      9642      9643      9642      9644      9643      9642      9645
      9644      9642      9645      9646      9649      9650      9646      9649      9651
      9646      9649      9652      9647      9646      9648      9647      9646      9649
      9648      9646      9649      9649      9652      9653      9649      9652      9654
      9649      9652      9655      9650      9649      9651      9650      9649      9652
      9651      9649      9652      9652      9655      9656      9652      9655      9657
      9652      9655      9658      9653      9652      9654      9653      9652      9655
      9654      9652      9655      9655      9658      9659      9655      9658      9660
      9655      9658      9661      9656      9655      9657      9656      9655      9658
      9657      9655      9658      9658      9661      9662      9658      9661      9663
      9658      9661      9664      9659      9658      9660      9659      9658      9661
      9660      9658      9661      9661      9664      9665      9661      9664      9666
      9661      9664      9667      9662      9661      9663      9662      9661      9664
      9663      9661      9664      9664      9667      9668      9664      9667      9669
      9664      9667      9670      9665      9664      9666      9665      9664      9667
      9666      9664      9667      9667      9670      9671      9667      9670      9672
      9667      9670      9673      9668      9667      9669      9668      9667      9670
      9669      9667      9670      9670      9673      9674      9670      9673      9675
      9670      9673      9676      9671      9670      9672      9671      9670      9673
      9672      9670      9673      9673      9676      9677      9673      9676      9678
      9673      9676      9679      9674      9673      9675      9674      9673      9676
      9675      9673      9676      9676      9679      9680      9676      9679      9681
      9676      9679      9682      9677      9676      9678      9677      9676      9679
      9678      9676      9679      9679      9682      9683      9679      9682      9684
      9679      9682      9685      9680      9679      9681      9680      9679      9682
      9681      9679      9682      9682      9685      9686      9682      9685      9687
      9682      9685      9688      9683      9682      9684      9683      9682      9685
      9684      9682      9685      9685      9688      9689      9685      9688      9690
      9685      9688      9691      9686      9685      9687      9686      9685      9688
      9687      9685      9688      9688      9691      9692      9688      9691      9693
      9688      9691      9694      9689      9688      9690      9689      9688      9691
      9690      9688      9691      9692      9691      9693      9692      9691      9694
      9693      9691      9694      9695      9699      9700      9695      9699      9701
      9695      9699      9702      9696      9695      9697      9696      9695      9698
      9696      9695      9699      9697      9695      9698      9697      9695      9699
      9698      9695      9699      9699      9702      9703      9699      9702      9704
      9699      9702      9708      9700      9699      9701      9700      9699      9702
      9701      9699      9702      9702      9708      9705      9703      9702      9704
      9703      9702      9708      9704      9702      9708      9705      9709      9710
      9706      9705      9707      9706      9705      9708      9706      9705      9709
      9707      9705      9708      9707      9705      9709      9708      9705      9709
      9709      9710      9711      9709      9710      9712      9709      9710      9713
      9710      9713      9714      9710      9713      9715      9710      9713      9721
      9711      9710      9712      9711      9710      9713      9712      9710      9713
      9713      9715      9716      9713      9721      9722      9713      9721      9723
      9713      9721      9724      9714      9713      9715      9714      9713      9721
      9715      9713      9721      9715      9716      9717      9715      9716      9718
      9716      9718      9719      9716      9718      9720      9716      9718      9730
      9717      9716      9718      9718      9730      9731      9718      9730      9732
      9718      9730      9733      9719      9718      9720      9719      9718      9730
      9720      9718      9730      9721      9724      9725      9722      9721      9723
      9722      9721      9724      9723      9721      9724      9724      9725      9726
      9724      9725      9727      9725      9727      9728      9725      9727      9729
      9725      9727      9777      9726      9725      9727      9727      9777      9778
      9727      9777      9779      9727      9777      9780      9728      9727      9729
      9728      9727      9777      9729      9727      9777      9730      9733      9734
      9730      9733      9735      9730      9733      9736      9731      9730      9732
      9731      9730      9733      9732      9730      9733      9733      9736      9737
      9733      9736      9738      9734      9733      9735      9734      9733      9736
      9735      9733      9736      9736      9738      9739      9736      9738      9740
      9737      9736      9738      9738      9740      9741      9738      9740      9742
      9738      9740      9743      9739      9738      9740      9740      9743      9744
      9740      9743      9745      9741      9740      9742      9741      9740      9743
      9742      9740      9743      9743      9745      9746      9743      9745      9747
      9744      9743      9745      9745      9747      9748      9745      9747      9749
      9745      9747      9750      9746      9745      9747      9747      9750      9751
      9747      9750      9752      9748      9747      9749      9748      9747      9750
      9749      9747      9750      9750      9752      9753      9750      9752      9754
      9751      9750      9752      9752      9754      9755      9752      9754      9756
      9752      9754      9757      9753      9752      9754      9754      9757      9758
      9754      9757      9759      9755      9754      9756      9755      9754      9757
      9756      9754      9757      9757      9759      9760      9757      9759      9761
      9758      9757      9759      9759      9761      9762      9759      9761      9763
      9759      9761      9764      9760      9759      9761      9761      9764      9765
      9761      9764      9766      9761      9764      9767      9762      9761      9763
      9762      9761      9764      9763      9761      9764      9764      9767      9768
      9764      9767      9769      9764      9767      9770      9765      9764      9766
      9765      9764      9767      9766      9764      9767      9767      9770      9771
      9767      9770      9772      9767      9770      9773      9768      9767      9769
      9768      9767      9770      9769      9767      9770      9770      9773      9774
      9770      9773      9775      9770      9773      9776      9771      9770      9772
      9771      9770      9773      9772      9770      9773      9774      9773      9775
      9774      9773      9776      9775      9773      9776      9777      9780      9781
      9777      9780      9782      9777      9780      9783      9778      9777      9779
      9778      9777      9780      9779      9777      9780      9780      9783      9784
      9780      9783      9785      9780      9783      9786      9781      9780      9782
      9781      9780      9783      9782      9780      9783      9783      9786      9787
      9783      9786      9788      9783      9786      9789      9784      9783      9785
      9784      9783      9786      9785      9783      9786      9786      9789      9790
      9786      9789      9791      9786      9789      9792      9787      9786      9788
      9787      9786      9789      9788      9786      9789      9789      9792      9793
      9789      9792      9794      9789      9792      9795      9790      9789      9791
      9790      9789      9792      9791      9789      9792      9792      9795      9796
      9792      9795      9797      9792      9795      9798      9793      9792      9794
      9793      9792      9795      9794      9792      9795      9795      9798      9799
      9795      9798      9800      9795      9798      9801      9796      9795      9797
      9796      9795      9798      9797      9795      9798      9798      9801      9802
      9798      9801      9803      9798      9801      9804      9799      9798      9800
      9799      9798      9801      9800      9798      9801      9801      9804      9805
      9801      9804      9806      9801      9804      9807      9802      9801      9803
      9802      9801      9804      9803      9801      9804      9804      9807      9808
      9804      9807      9809      9804      9807      9810      9805      9804      9806
      9805      9804      9807      9806      9804      9807      9807      9810      9811
      9807      9810      9812      9807      9810      9813      9808      9807      9809
      9808      9807      9810      9809      9807      9810      9810      9813      9814
      9810      9813      9815      9810      9813      9816      9811      9810      9812
      9811      9810      9813      9812      9810      9813      9813      9816      9817
      9813      9816      9818      9813      9816      9819      9814      9813      9815
      9814      9813      9816      9815      9813      9816      9816      9819      9820
      9816      9819      9821      9816      9819      9822      9817      9816      9818
      9817      9816      9819      9818      9816      9819      9819      9822      9823
      9819      9822      9824      9819      9822      9825      9820      9819      9821
      9820      9819      9822      9821      9819      9822      9823      9822      9824
      9823      9822      9825      9824      9822      9825      9826      9828      9829
      9826      9830      9831      9826      9830      9832      9826      9830      9833
      9826      9872      9869      9826      9872      9873      9826      9872      9874
      9827      9826      9828      9827      9826      9830      9827      9826      9872
      9828      9826      9830      9828      9826      9872      9830      9826      9872
      9830      9833      9834      9830      9833      9864      9831      9830      9832
      9831      9830      9833      9832      9830      9833      9833      9834      9835
      9833      9834      9836      9833      9864      9862      9833      9864      9865
      9833      9864      9869      9834      9833      9864      9834      9836      9837
      9834      9836      9838      9834      9836      9839      9835      9834      9836
      9836      9839      9840      9836      9839      9841      9836      9839      9862
      9837      9836      9838      9837      9836      9839      9838      9836      9839
      9839      9841      9842      9839      9841      9843      9839      9841      9851
      9839      9862      9859      9839      9862      9863      9839      9862      9864
      9840      9839      9841      9840      9839      9862      9841      9839      9862
      9841      9843      9844      9841      9843      9845      9841      9843      9846
      9841      9851      9849      9841      9851      9852      9841      9851      9856
      9842      9841      9843      9842      9841      9851      9843      9841      9851
      9843      9846      9847      9843      9846      9848      9843      9846      9849
      9844      9843      9845      9844      9843      9846      9845      9843      9846
      9846      9849      9850      9846      9849      9851      9846      9849      9875
      9847      9846      9848      9847      9846      9849      9848      9846      9849
      9849      9851      9852      9849      9851      9856      9849      9875      9876
      9849      9875      9877      9849      9875      9881      9850      9849      9851
      9850      9849      9875      9851      9849      9875      9851      9852      9853
      9851      9852      9854      9851      9852      9855      9851      9856      9857
      9851      9856      9858      9851      9856      9859      9852      9851      9856
      9853      9852      9854      9853      9852      9855      9854      9852      9855
      9856      9859      9860      9856      9859      9861      9856      9859      9862
      9857      9856      9858      9857      9856      9859      9858      9856      9859
      9859      9862      9863      9859      9862      9864      9860      9859      9861
      9860      9859      9862      9861      9859      9862      9862      9864      9865
      9862      9864      9869      9863      9862      9864      9864      9865      9866
      9864      9865      9867      9864      9865      9868      9864      9869      9870
      9864      9869      9871      9864      9869      9872      9865      9864      9869
      9866      9865      9867      9866      9865      9868      9867      9865      9868
      9869      9872      9873      9869      9872      9874      9870      9869      9871
      9870      9869      9872      9871      9869      9872      9873      9872      9874
      9875      9877      9878      9875      9877      9879      9875      9877      9880
      9875      9881      9882      9875      9881      9883      9875      9881      9884
      9876      9875      9877      9876      9875      9881      9877      9875      9881
      9878      9877      9879      9878      9877      9880      9879      9877      9880
      9881      9884      9885      9881      9884      9886      9881      9884      9887
      9882      9881      9883      9882      9881      9884      9883      9881      9884
      9884      9887      9888      9884      9887      9889      9884      9887      9890
      9885      9884      9886      9885      9884      9887      9886      9884      9887
      9887      9890      9891      9887      9890      9892      9887      9890      9896
      9888      9887      9889      9888      9887      9890      9889      9887      9890
      9890      9892      9893      9890      9892      9894      9890      9892      9895
      9890      9896      9897      9890      9896      9898      9890      9896      9899
      9891      9890      9892      9891      9890      9896      9892      9890      9896
      9893      9892      9894      9893      9892      9895      9894      9892      9895
      9897      9896      9898      9897      9896      9899      9898      9896      9899
      9900      9904      9905      9900      9904      9906      9900      9904      9909
      9901      9900      9902      9901      9900      9903      9901      9900      9904
      9902      9900      9903      9902      9900      9904      9903      9900      9904
      9904      9906      9907      9904      9906      9908      9904      9909      9910
      9904      9909      9911      9904      9909      9915      9905      9904      9906
      9905      9904      9909      9906      9904      9909      9907      9906      9908
      9909      9915      9912      9910      9909      9911      9910      9909      9915
      9911      9909      9915      9912      9916      9917      9913      9912      9914
      9913      9912      9915      9913      9912      9916      9914      9912      9915
      9914      9912      9916      9915      9912      9916      9916      9917      9918
      9916      9917      9919      9916      9917      9920      9917      9920      9921
      9917      9920      9922      9917      9920      9928      9918      9917      9919
      9918      9917      9920      9919      9917      9920      9920      9922      9923
      9920      9928      9929      9920      9928      9930      9920      9928      9931
      9921      9920      9922      9921      9920      9928      9922      9920      9928
      9922      9923      9924      9922      9923      9925      9923      9925      9926
      9923      9925      9927      9923      9925      9937      9924      9923      9925
      9925      9937      9938      9925      9937      9939      9925      9937      9940
      9926      9925      9927      9926      9925      9937      9927      9925      9937
      9928      9931      9932      9929      9928      9930      9929      9928      9931
      9930      9928      9931      9931      9932      9933      9931      9932      9934
      9932      9934      9935      9932      9934      9936      9932      9934      9984
      9933      9932      9934      9934      9984      9985      9934      9984      9986
      9934      9984      9987      9935      9934      9936      9935      9934      9984
      9936      9934      9984      9937      9940      9941      9937      9940      9942
      9937      9940      9943      9938      9937      9939      9938      9937      9940
      9939      9937      9940      9940      9943      9944      9940      9943      9945
      9941      9940      9942      9941      9940      9943      9942      9940      9943
      9943      9945      9946      9943      9945      9947      9944      9943      9945
      9945      9947      9948      9945      9947      9949      9945      9947      9950
      9946      9945      9947      9947      9950      9951      9947      9950      9952
      9948      9947      9949      9948      9947      9950      9949      9947      9950
      9950      9952      9953      9950      9952      9954      9951      9950      9952
      9952      9954      9955      9952      9954      9956      9952      9954      9957
      9953      9952      9954      9954      9957      9958      9954      9957      9959
      9955      9954      9956      9955      9954      9957      9956      9954      9957
      9957      9959      9960      9957      9959      9961      9958      9957      9959
      9959      9961      9962      9959      9961      9963      9959      9961      9964
      9960      9959      9961      9961      9964      9965      9961      9964      9966
      9962      9961      9963      9962      9961      9964      9963      9961      9964
      9964      9966      9967      9964      9966      9968      9965      9964      9966
      9966      9968      9969      9966      9968      9970      9966      9968      9971
      9967      9966      9968      9968      9971      9972      9968      9971      9973
      9968      9971      9974      9969      9968      9970      9969      9968      9971
      9970      9968      9971      9971      9974      9975      9971      9974      9976
      9971      9974      9977      9972      9971      9973      9972      9971      9974
      9973      9971      9974      9974      9977      9978      9974      9977      9979
      9974      9977      9980      9975      9974      9976      9975      9974      9977
      9976      9974      9977      9977      9980      9981      9977      9980      9982
      9977      9980      9983      9978      9977      9979      9978      9977      9980
      9979      9977      9980      9981      9980      9982      9981      9980      9983
      9982      9980      9983      9984      9987      9988      9984      9987      9989
      9984      9987      9990      9985      9984      9986      9985      9984      9987
      9986      9984      9987      9987      9990      9991      9987      9990      9992
      9987      9990      9993      9988      9987      9989      9988      9987      9990
      9989      9987      9990      9990      9993      9994      9990      9993      9995
      9990      9993      9996      9991      9990      9992      9991      9990      9993
      9992      9990      9993      9993      9996      9997      9993      9996      9998
      9993      9996      9999      9994      9993      9995      9994      9993      9996
      9995      9993      9996      9996      9999     10000      9996      9999     10001
      9996      9999     10002      9997      9996      9998      9997      9996      9999
      9998      9996      9999      9999     10002     10003      9999     10002     10004
      9999     10002     10005     10000      9999     10001     10000      9999     10002
     10001      9999     10002     10002     10005     10006     10002     10005     10007
     10002     10005     10008     10003     10002     10004     10003     10002     10005
     10004     10002     10005     10005     10008     10009     10005     10008     10010
     10005     10008     10011     10006     10005     10007     10006     10005     10008
     10007     10005     10008     10008     10011     10012     10008     10011     10013
     10008     10011     10014     10009     10008     10010     10009     10008     10011
     10010     10008     10011     10011     10014     10015     10011     10014     10016
     10011     10014     10017     10012     10011     10013     10012     10011     10014
     10013     10011     10014     10014     10017     10018     10014     10017     10019
     10014     10017     10020     10015     10014     10016     10015     10014     10017
     10016     10014     10017     10017     10020     10021     10017     10020     10022
     10017     10020     10023     10018     10017     10019     10018     10017     10020
     10019     10017     10020     10020     10023     10024     10020     10023     10025
     10020     10023     10026     10021     10020     10022     10021     10020     10023
     10022     10020     10023     10023     10026     10027     10023     10026     10028
     10023     10026     10029     10024     10023     10025     10024     10023     10026
     10025     10023     10026     10026     10029     10030     10026     10029     10031
     10026     10029     10032     10027     10026     10028     10027     10026     10029
     10028     10026     10029     10030     10029     10031     10030     10029     10032
     10031     10029     10032     10033     10035     10036     10033     10037     10038
     10033     10037     10039     10033     10037     10040     10033     10079     10076
     10033     10079     10080     10033     10079     10081     10034     10033     10035
     10034     10033     10037     10034     10033     10079     10035     10033     10037
     10035     10033     10079     10037     10033     10079     10037     10040     10041
     10037     10040     10071     10038     10037     10039     10038     10037     10040
     10039     10037     10040     10040     10041     10042     10040     10041     10043
     10040     10071     10069     10040     10071     10072     10040     10071     10076
     10041     10040     10071     10041     10043     10044     10041     10043     10045
     10041     10043     10046     10042     10041     10043     10043     10046     10047
     10043     10046     10048     10043     10046     10069     10044     10043     10045
     10044     10043     10046     10045     10043     10046     10046     10048     10049
     10046     10048     10050     10046     10048     10058     10046     10069     10066
     10046     10069     10070     10046     10069     10071     10047     10046     10048
     10047     10046     10069     10048     10046     10069     10048     10050     10051
     10048     10050     10052     10048     10050     10053     10048     10058     10056
     10048     10058     10059     10048     10058     10063     10049     10048     10050
     10049     10048     10058     10050     10048     10058     10050     10053     10054
     10050     10053     10055     10050     10053     10056     10051     10050     10052
     10051     10050     10053     10052     10050     10053     10053     10056     10057
     10053     10056     10058     10053     10056     10082     10054     10053     10055
     10054     10053     10056     10055     10053     10056     10056     10058     10059
     10056     10058     10063     10056     10082     10083     10056     10082     10084
     10056     10082     10088     10057     10056     10058     10057     10056     10082
     10058     10056     10082     10058     10059     10060     10058     10059     10061
     10058     10059     10062     10058     10063     10064     10058     10063     10065
     10058     10063     10066     10059     10058     10063     10060     10059     10061
     10060     10059     10062     10061     10059     10062     10063     10066     10067
     10063     10066     10068     10063     10066     10069     10064     10063     10065
     10064     10063     10066     10065     10063     10066     10066     10069     10070
     10066     10069     10071     10067     10066     10068     10067     10066     10069
     10068     10066     10069     10069     10071     10072     10069     10071     10076
     10070     10069     10071     10071     10072     10073     10071     10072     10074
     10071     10072     10075     10071     10076     10077     10071     10076     10078
     10071     10076     10079     10072     10071     10076     10073     10072     10074
     10073     10072     10075     10074     10072     10075     10076     10079     10080
     10076     10079     10081     10077     10076     10078     10077     10076     10079
     10078     10076     10079     10080     10079     10081     10082     10084     10085
     10082     10084     10086     10082     10084     10087     10082     10088     10089
     10082     10088     10090     10082     10088     10091     10083     10082     10084
     10083     10082     10088     10084     10082     10088     10085     10084     10086
     10085     10084     10087     10086     10084     10087     10088     10091     10092
     10088     10091     10093     10088     10091     10094     10089     10088     10090
     10089     10088     10091     10090     10088     10091     10091     10094     10095
     10091     10094     10096     10091     10094     10097     10092     10091     10093
     10092     10091     10094     10093     10091     10094     10094     10097     10098
     10094     10097     10099     10094     10097     10103     10095     10094     10096
     10095     10094     10097     10096     10094     10097     10097     10099     10100
     10097     10099     10101     10097     10099     10102     10097     10103     10104
     10097     10103     10105     10097     10103     10106     10098     10097     10099
     10098     10097     10103     10099     10097     10103     10100     10099     10101
     10100     10099     10102     10101     10099     10102     10104     10103     10105
     10104     10103     10106     10105     10103     10106     10107     10108     10109
     10107     10108     10110     10107     10108     10111     10107     10112     10113
     10107     10112     10114     10107     10112     10115     10107     10116     10117
     10107     10116     10118     10107     10116     10119     10107     10120     10121
     10107     10120     10122     10107     10120     10123     10108     10107     10112
     10108     10107     10116     10108     10107     10120     10109     10108     10110
     10109     10108     10111     10110     10108     10111     10112     10107     10116
     10112     10107     10120     10113     10112     10114     10113     10112     10115
     10114     10112     10115     10116     10107     10120     10117     10116     10118
     10117     10116     10119     10118     10116     10119     10120     10123     10124
     10120     10123     10125     10120     10123     10130     10121     10120     10122
     10121     10120     10123     10122     10120     10123     10123     10130     10126
     10124     10123     10125     10124     10123     10130     10125     10123     10130
     10126     10129     10131     10127     10126     10128     10127     10126     10129
     10127     10126     10130     10128     10126     10129     10128     10126     10130
     10129     10126     10130     10129     10131     10132     10129     10131     10133
     10129     10131     10136     10131     10136     10134     10131     10136     10137
     10131     10136     10138     10132     10131     10133     10132     10131     10136
     10133     10131     10136     10134     10136     10137     10134     10136     10138
     10134     10186     10187     10134     10186     10188     10135     10134     10136
     10135     10134     10186     10136     10134     10186     10136     10138     10139
     10136     10138     10140     10136     10138     10142     10137     10136     10138
     10138     10140     10141     10138     10142     10143     10138     10142     10144
     10139     10138     10140     10139     10138     10142     10140     10138     10142
     10142     10144     10145     10142     10144     10146     10143     10142     10144
     10144     10146     10147     10144     10146     10148     10144     10146     10149
     10145     10144     10146     10146     10149     10150     10146     10149     10151
     10146     10149     10152     10147     10146     10148     10147     10146     10149
     10148     10146     10149     10149     10152     10153     10149     10152     10154
     10149     10152     10155     10150     10149     10151     10150     10149     10152
     10151     10149     10152     10152     10155     10156     10152     10155     10157
     10152     10155     10158     10153     10152     10154     10153     10152     10155
     10154     10152     10155     10155     10158     10159     10155     10158     10160
     10155     10158     10161     10156     10155     10157     10156     10155     10158
     10157     10155     10158     10158     10161     10162     10158     10161     10163
     10158     10161     10164     10159     10158     10160     10159     10158     10161
     10160     10158     10161     10161     10164     10165     10161     10164     10166
     10161     10164     10167     10162     10161     10163     10162     10161     10164
     10163     10161     10164     10164     10167     10168     10164     10167     10169
     10164     10167     10170     10165     10164     10166     10165     10164     10167
     10166     10164     10167     10167     10170     10171     10167     10170     10172
     10167     10170     10173     10168     10167     10169     10168     10167     10170
     10169     10167     10170     10170     10173     10174     10170     10173     10175
     10170     10173     10176     10171     10170     10172     10171     10170     10173
     10172     10170     10173     10173     10176     10177     10173     10176     10178
     10173     10176     10179     10174     10173     10175     10174     10173     10176
     10175     10173     10176     10176     10179     10180     10176     10179     10181
     10176     10179     10182     10177     10176     10178     10177     10176     10179
     10178     10176     10179     10179     10182     10183     10179     10182     10184
     10179     10182     10185     10180     10179     10181     10180     10179     10182
     10181     10179     10182     10183     10182     10184     10183     10182     10185
     10184     10182     10185     10186     10188     10189     10186     10188     10190
     10186     10188     10191     10187     10186     10188     10188     10191     10192
     10188     10191     10193     10188     10191     10194     10189     10188     10190
     10189     10188     10191     10190     10188     10191     10191     10194     10195
     10191     10194     10196     10191     10194     10197     10192     10191     10193
     10192     10191     10194     10193     10191     10194     10194     10197     10198
     10194     10197     10199     10194     10197     10200     10195     10194     10196
     10195     10194     10197     10196     10194     10197     10197     10200     10201
     10197     10200     10202     10197     10200     10203     10198     10197     10199
     10198     10197     10200     10199     10197     10200     10200     10203     10204
     10200     10203     10205     10200     10203     10206     10201     10200     10202
     10201     10200     10203     10202     10200     10203     10203     10206     10207
     10203     10206     10208     10203     10206     10209     10204     10203     10205
     10204     10203     10206     10205     10203     10206     10206     10209     10210
     10206     10209     10211     10207     10206     10208     10207     10206     10209
     10208     10206     10209     10209     10211     10212     10209     10211     10213
     10210     10209     10211     10211     10213     10214     10211     10213     10215
     10211     10213     10216     10212     10211     10213     10213     10216     10217
     10213     10216     10218     10213     10216     10219     10214     10213     10215
     10214     10213     10216     10215     10213     10216     10216     10219     10220
     10216     10219     10221     10216     10219     10222     10217     10216     10218
     10217     10216     10219     10218     10216     10219     10219     10222     10223
     10219     10222     10224     10219     10222     10225     10220     10219     10221
     10220     10219     10222     10221     10219     10222     10222     10225     10226
     10222     10225     10227     10222     10225     10228     10223     10222     10224
     10223     10222     10225     10224     10222     10225     10225     10228     10229
     10225     10228     10230     10225     10228     10231     10226     10225     10227
     10226     10225     10228     10227     10225     10228     10228     10231     10232
     10228     10231     10233     10228     10231     10234     10229     10228     10230
     10229     10228     10231     10230     10228     10231     10231     10234     10235
     10231     10234     10236     10231     10234     10237     10232     10231     10233
     10232     10231     10234     10233     10231     10234     10235     10234     10236
     10235     10234     10237     10236     10234     10237     10238     10242     10243
     10238     10242     10244     10238     10242     10245     10239     10238     10240
     10239     10238     10241     10239     10238     10242     10240     10238     10241
     10240     10238     10242     10241     10238     10242     10242     10245     10246
     10242     10245     10247     10242     10245     10251     10243     10242     10244
     10243     10242     10245     10244     10242     10245     10245     10251     10248
     10246     10245     10247     10246     10245     10251     10247     10245     10251
     10248     10252     10253     10249     10248     10250     10249     10248     10251
     10249     10248     10252     10250     10248     10251     10250     10248     10252
     10251     10248     10252     10252     10253     10254     10252     10253     10255
     10252     10253     10256     10253     10256     10257     10253     10256     10258
     10253     10256     10264     10254     10253     10255     10254     10253     10256
     10255     10253     10256     10256     10258     10259     10256     10264     10265
     10256     10264     10266     10256     10264     10267     10257     10256     10258
     10257     10256     10264     10258     10256     10264     10258     10259     10260
     10258     10259     10261     10259     10261     10262     10259     10261     10263
     10259     10261     10273     10260     10259     10261     10261     10273     10274
     10261     10273     10275     10261     10273     10276     10262     10261     10263
     10262     10261     10273     10263     10261     10273     10264     10267     10268
     10265     10264     10266     10265     10264     10267     10266     10264     10267
     10267     10268     10269     10267     10268     10270     10268     10270     10271
     10268     10270     10272     10268     10270     10320     10269     10268     10270
     10270     10320     10321     10270     10320     10322     10270     10320     10323
     10271     10270     10272     10271     10270     10320     10272     10270     10320
     10273     10276     10277     10273     10276     10278     10273     10276     10279
     10274     10273     10275     10274     10273     10276     10275     10273     10276
     10276     10279     10280     10276     10279     10281     10277     10276     10278
     10277     10276     10279     10278     10276     10279     10279     10281     10282
     10279     10281     10283     10280     10279     10281     10281     10283     10284
     10281     10283     10285     10281     10283     10286     10282     10281     10283
     10283     10286     10287     10283     10286     10288     10284     10283     10285
     10284     10283     10286     10285     10283     10286     10286     10288     10289
     10286     10288     10290     10287     10286     10288     10288     10290     10291
     10288     10290     10292     10288     10290     10293     10289     10288     10290
     10290     10293     10294     10290     10293     10295     10291     10290     10292
     10291     10290     10293     10292     10290     10293     10293     10295     10296
     10293     10295     10297     10294     10293     10295     10295     10297     10298
     10295     10297     10299     10295     10297     10300     10296     10295     10297
     10297     10300     10301     10297     10300     10302     10298     10297     10299
     10298     10297     10300     10299     10297     10300     10300     10302     10303
     10300     10302     10304     10301     10300     10302     10302     10304     10305
     10302     10304     10306     10302     10304     10307     10303     10302     10304
     10304     10307     10308     10304     10307     10309     10304     10307     10310
     10305     10304     10306     10305     10304     10307     10306     10304     10307
     10307     10310     10311     10307     10310     10312     10307     10310     10313
     10308     10307     10309     10308     10307     10310     10309     10307     10310
     10310     10313     10314     10310     10313     10315     10310     10313     10316
     10311     10310     10312     10311     10310     10313     10312     10310     10313
     10313     10316     10317     10313     10316     10318     10313     10316     10319
     10314     10313     10315     10314     10313     10316     10315     10313     10316
     10317     10316     10318     10317     10316     10319     10318     10316     10319
     10320     10323     10324     10320     10323     10325     10320     10323     10326
     10321     10320     10322     10321     10320     10323     10322     10320     10323
     10323     10326     10327     10323     10326     10328     10323     10326     10329
     10324     10323     10325     10324     10323     10326     10325     10323     10326
     10326     10329     10330     10326     10329     10331     10326     10329     10332
     10327     10326     10328     10327     10326     10329     10328     10326     10329
     10329     10332     10333     10329     10332     10334     10329     10332     10335
     10330     10329     10331     10330     10329     10332     10331     10329     10332
     10332     10335     10336     10332     10335     10337     10332     10335     10338
     10333     10332     10334     10333     10332     10335     10334     10332     10335
     10335     10338     10339     10335     10338     10340     10335     10338     10341
     10336     10335     10337     10336     10335     10338     10337     10335     10338
     10338     10341     10342     10338     10341     10343     10338     10341     10344
     10339     10338     10340     10339     10338     10341     10340     10338     10341
     10341     10344     10345     10341     10344     10346     10341     10344     10347
     10342     10341     10343     10342     10341     10344     10343     10341     10344
     10344     10347     10348     10344     10347     10349     10344     10347     10350
     10345     10344     10346     10345     10344     10347     10346     10344     10347
     10347     10350     10351     10347     10350     10352     10347     10350     10353
     10348     10347     10349     10348     10347     10350     10349     10347     10350
     10350     10353     10354     10350     10353     10355     10350     10353     10356
     10351     10350     10352     10351     10350     10353     10352     10350     10353
     10353     10356     10357     10353     10356     10358     10353     10356     10359
     10354     10353     10355     10354     10353     10356     10355     10353     10356
     10356     10359     10360     10356     10359     10361     10356     10359     10362
     10357     10356     10358     10357     10356     10359     10358     10356     10359
     10359     10362     10363     10359     10362     10364     10359     10362     10365
     10360     10359     10361     10360     10359     10362     10361     10359     10362
     10362     10365     10366     10362     10365     10367     10362     10365     10368
     10363     10362     10364     10363     10362     10365     10364     10362     10365
     10366     10365     10367     10366     10365     10368     10367     10365     10368
     10369     10373     10374     10369     10373     10375     10369     10373     10376
     10370     10369     10371     10370     10369     10372     10370     10369     10373
     10371     10369     10372     10371     10369     10373     10372     10369     10373
     10373     10376     10377     10373     10376     10378     10373     10376     10382
     10374     10373     10375     10374     10373     10376     10375     10373     10376
     10376     10382     10379     10377     10376     10378     10377     10376     10382
     10378     10376     10382     10379     10383     10384     10380     10379     10381
     10380     10379     10382     10380     10379     10383     10381     10379     10382
     10381     10379     10383     10382     10379     10383     10383     10384     10385
     10383     10384     10386     10383     10384     10387     10384     10387     10388
     10384     10387     10389     10384     10387     10395     10385     10384     10386
     10385     10384     10387     10386     10384     10387     10387     10389     10390
     10387     10395     10396     10387     10395     10397     10387     10395     10398
     10388     10387     10389     10388     10387     10395     10389     10387     10395
     10389     10390     10391     10389     10390     10392     10390     10392     10393
     10390     10392     10394     10390     10392     10404     10391     10390     10392
     10392     10404     10405     10392     10404     10406     10392     10404     10407
     10393     10392     10394     10393     10392     10404     10394     10392     10404
     10395     10398     10399     10396     10395     10397     10396     10395     10398
     10397     10395     10398     10398     10399     10400     10398     10399     10401
     10399     10401     10402     10399     10401     10403     10399     10401     10451
     10400     10399     10401     10401     10451     10452     10401     10451     10453
     10401     10451     10454     10402     10401     10403     10402     10401     10451
     10403     10401     10451     10404     10407     10408     10404     10407     10409
     10404     10407     10410     10405     10404     10406     10405     10404     10407
     10406     10404     10407     10407     10410     10411     10407     10410     10412
     10407     10410     10413     10408     10407     10409     10408     10407     10410
     10409     10407     10410     10410     10413     10414     10410     10413     10415
     10410     10413     10416     10411     10410     10412     10411     10410     10413
     10412     10410     10413     10413     10416     10417     10413     10416     10418
     10413     10416     10419     10414     10413     10415     10414     10413     10416
     10415     10413     10416     10416     10419     10420     10416     10419     10421
     10416     10419     10422     10417     10416     10418     10417     10416     10419
     10418     10416     10419     10419     10422     10423     10419     10422     10424
     10420     10419     10421     10420     10419     10422     10421     10419     10422
     10422     10424     10425     10422     10424     10426     10423     10422     10424
     10424     10426     10427     10424     10426     10428     10424     10426     10429
     10425     10424     10426     10426     10429     10430     10426     10429     10431
     10426     10429     10432     10427     10426     10428     10427     10426     10429
     10428     10426     10429     10429     10432     10433     10429     10432     10434
     10429     10432     10435     10430     10429     10431     10430     10429     10432
     10431     10429     10432     10432     10435     10436     10432     10435     10437
     10432     10435     10438     10433     10432     10434     10433     10432     10435
     10434     10432     10435     10435     10438     10439     10435     10438     10440
     10435     10438     10441     10436     10435     10437     10436     10435     10438
     10437     10435     10438     10438     10441     10442     10438     10441     10443
     10438     10441     10444     10439     10438     10440     10439     10438     10441
     10440     10438     10441     10441     10444     10445     10441     10444     10446
     10441     10444     10447     10442     10441     10443     10442     10441     10444
     10443     10441     10444     10444     10447     10448     10444     10447     10449
     10444     10447     10450     10445     10444     10446     10445     10444     10447
     10446     10444     10447     10448     10447     10449     10448     10447     10450
     10449     10447     10450     10451     10454     10455     10451     10454     10456
     10451     10454     10457     10452     10451     10453     10452     10451     10454
     10453     10451     10454     10454     10457     10458     10454     10457     10459
     10454     10457     10460     10455     10454     10456     10455     10454     10457
     10456     10454     10457     10457     10460     10461     10457     10460     10462
     10457     10460     10463     10458     10457     10459     10458     10457     10460
     10459     10457     10460     10460     10463     10464     10460     10463     10465
     10460     10463     10466     10461     10460     10462     10461     10460     10463
     10462     10460     10463     10463     10466     10467     10463     10466     10468
     10463     10466     10469     10464     10463     10465     10464     10463     10466
     10465     10463     10466     10466     10469     10470     10466     10469     10471
     10466     10469     10472     10467     10466     10468     10467     10466     10469
     10468     10466     10469     10469     10472     10473     10469     10472     10474
     10469     10472     10475     10470     10469     10471     10470     10469     10472
     10471     10469     10472     10472     10475     10476     10472     10475     10477
     10472     10475     10478     10473     10472     10474     10473     10472     10475
     10474     10472     10475     10475     10478     10479     10475     10478     10480
     10475     10478     10481     10476     10475     10477     10476     10475     10478
     10477     10475     10478     10478     10481     10482     10478     10481     10483
     10478     10481     10484     10479     10478     10480     10479     10478     10481
     10480     10478     10481     10481     10484     10485     10481     10484     10486
     10481     10484     10487     10482     10481     10483     10482     10481     10484
     10483     10481     10484     10484     10487     10488     10484     10487     10489
     10484     10487     10490     10485     10484     10486     10485     10484     10487
     10486     10484     10487     10487     10490     10491     10487     10490     10492
     10487     10490     10493     10488     10487     10489     10488     10487     10490
     10489     10487     10490     10490     10493     10494     10490     10493     10495
     10490     10493     10496     10491     10490     10492     10491     10490     10493
     10492     10490     10493     10493     10496     10497     10493     10496     10498
     10493     10496     10499     10494     10493     10495     10494     10493     10496
     10495     10493     10496     10497     10496     10498     10497     10496     10499
     10498     10496     10499     10500     10501     10502     10500     10501     10503
     10500     10501     10516     10500     10504     10505     10500     10504     10506
     10500     10504     10507     10500     10508     10509     10500     10508     10510
     10500     10508     10511     10500     10512     10513     10500     10512     10514
     10500     10512     10515     10501     10500     10504     10501     10500     10508
     10501     10500     10512     10501     10516     10517     10501     10516     10518
     10501     10516     10522     10502     10501     10503     10502     10501     10516
     10503     10501     10516     10504     10500     10508     10504     10500     10512
     10505     10504     10506     10505     10504     10507     10506     10504     10507
     10508     10500     10512     10509     10508     10510     10509     10508     10511
     10510     10508     10511     10513     10512     10514     10513     10512     10515
     10514     10512     10515     10516     10522     10519     10517     10516     10518
     10517     10516     10522     10518     10516     10522     10519     10523     10524
     10520     10519     10521     10520     10519     10522     10520     10519     10523
     10521     10519     10522     10521     10519     10523     10522     10519     10523
     10523     10524     10525     10523     10524     10526     10523     10524     10527
     10524     10527     10528     10524     10527     10529     10524     10527     10535
     10525     10524     10526     10525     10524     10527     10526     10524     10527
     10527     10529     10530     10527     10535     10536     10527     10535     10537
     10527     10535     10538     10528     10527     10529     10528     10527     10535
     10529     10527     10535     10529     10530     10531     10529     10530     10532
     10530     10532     10533     10530     10532     10534     10530     10532     10544
     10531     10530     10532     10532     10544     10545     10532     10544     10546
     10532     10544     10547     10533     10532     10534     10533     10532     10544
     10534     10532     10544     10535     10538     10539     10536     10535     10537
     10536     10535     10538     10537     10535     10538     10538     10539     10540
     10538     10539     10541     10539     10541     10542     10539     10541     10543
     10539     10541     10591     10540     10539     10541     10541     10591     10592
     10541     10591     10593     10541     10591     10594     10542     10541     10543
     10542     10541     10591     10543     10541     10591     10544     10547     10548
     10544     10547     10549     10544     10547     10550     10545     10544     10546
     10545     10544     10547     10546     10544     10547     10547     10550     10551
     10547     10550     10552     10548     10547     10549     10548     10547     10550
     10549     10547     10550     10550     10552     10553     10550     10552     10554
     10551     10550     10552     10552     10554     10555     10552     10554     10556
     10552     10554     10557     10553     10552     10554     10554     10557     10558
     10554     10557     10559     10555     10554     10556     10555     10554     10557
     10556     10554     10557     10557     10559     10560     10557     10559     10561
     10558     10557     10559     10559     10561     10562     10559     10561     10563
     10559     10561     10564     10560     10559     10561     10561     10564     10565
     10561     10564     10566     10562     10561     10563     10562     10561     10564
     10563     10561     10564     10564     10566     10567     10564     10566     10568
     10565     10564     10566     10566     10568     10569     10566     10568     10570
     10566     10568     10571     10567     10566     10568     10568     10571     10572
     10568     10571     10573     10569     10568     10570     10569     10568     10571
     10570     10568     10571     10571     10573     10574     10571     10573     10575
     10572     10571     10573     10573     10575     10576     10573     10575     10577
     10573     10575     10578     10574     10573     10575     10575     10578     10579
     10575     10578     10580     10575     10578     10581     10576     10575     10577
     10576     10575     10578     10577     10575     10578     10578     10581     10582
     10578     10581     10583     10578     10581     10584     10579     10578     10580
     10579     10578     10581     10580     10578     10581     10581     10584     10585
     10581     10584     10586     10581     10584     10587     10582     10581     10583
     10582     10581     10584     10583     10581     10584     10584     10587     10588
     10584     10587     10589     10584     10587     10590     10585     10584     10586
     10585     10584     10587     10586     10584     10587     10588     10587     10589
     10588     10587     10590     10589     10587     10590     10591     10594     10595
     10591     10594     10596     10591     10594     10597     10592     10591     10593
     10592     10591     10594     10593     10591     10594     10594     10597     10598
     10594     10597     10599     10594     10597     10600     10595     10594     10596
     10595     10594     10597     10596     10594     10597     10597     10600     10601
     10597     10600     10602     10597     10600     10603     10598     10597     10599
     10598     10597     10600     10599     10597     10600     10600     10603     10604
     10600     10603     10605     10600     10603     10606     10601     10600     10602
     10601     10600     10603     10602     10600     10603     10603     10606     10607
     10603     10606     10608     10603     10606     10609     10604     10603     10605
     10604     10603     10606     10605     10603     10606     10606     10609     10610
     10606     10609     10611     10606     10609     10612     10607     10606     10608
     10607     10606     10609     10608     10606     10609     10609     10612     10613
     10609     10612     10614     10609     10612     10615     10610     10609     10611
     10610     10609     10612     10611     10609     10612     10612     10615     10616
     10612     10615     10617     10612     10615     10618     10613     10612     10614
     10613     10612     10615     10614     10612     10615     10615     10618     10619
     10615     10618     10620     10615     10618     10621     10616     10615     10617
     10616     10615     10618     10617     10615     10618     10618     10621     10622
     10618     10621     10623     10618     10621     10624     10619     10618     10620
     10619     10618     10621     10620     10618     10621     10621     10624     10625
     10621     10624     10626     10621     10624     10627     10622     10621     10623
     10622     10621     10624     10623     10621     10624     10624     10627     10628
     10624     10627     10629     10624     10627     10630     10625     10624     10626
     10625     10624     10627     10626     10624     10627     10627     10630     10631
     10627     10630     10632     10627     10630     10633     10628     10627     10629
     10628     10627     10630     10629     10627     10630     10630     10633     10634
     10630     10633     10635     10630     10633     10636     10631     10630     10632
     10631     10630     10633     10632     10630     10633     10633     10636     10637
     10633     10636     10638     10633     10636     10639     10634     10633     10635
     10634     10633     10636     10635     10633     10636     10637     10636     10638
     10637     10636     10639     10638     10636     10639     10640     10642     10643
     10640     10644     10645     10640     10644     10646     10640     10644     10647
     10640     10686     10683     10640     10686     10687     10640     10686     10688
     10641     10640     10642     10641     10640     10644     10641     10640     10686
     10642     10640     10644     10642     10640     10686     10644     10640     10686
     10644     10647     10648     10644     10647     10678     10645     10644     10646
     10645     10644     10647     10646     10644     10647     10647     10648     10649
     10647     10648     10650     10647     10678     10676     10647     10678     10679
     10647     10678     10683     10648     10647     10678     10648     10650     10651
     10648     10650     10652     10648     10650     10653     10649     10648     10650
     10650     10653     10654     10650     10653     10655     10650     10653     10676
     10651     10650     10652     10651     10650     10653     10652     10650     10653
     10653     10655     10656     10653     10655     10657     10653     10655     10665
     10653     10676     10673     10653     10676     10677     10653     10676     10678
     10654     10653     10655     10654     10653     10676     10655     10653     10676
     10655     10657     10658     10655     10657     10659     10655     10657     10660
     10655     10665     10663     10655     10665     10666     10655     10665     10670
     10656     10655     10657     10656     10655     10665     10657     10655     10665
     10657     10660     10661     10657     10660     10662     10657     10660     10663
     10658     10657     10659     10658     10657     10660     10659     10657     10660
     10660     10663     10664     10660     10663     10665     10660     10663     10689
     10661     10660     10662     10661     10660     10663     10662     10660     10663
     10663     10665     10666     10663     10665     10670     10663     10689     10690
     10663     10689     10691     10663     10689     10695     10664     10663     10665
     10664     10663     10689     10665     10663     10689     10665     10666     10667
     10665     10666     10668     10665     10666     10669     10665     10670     10671
     10665     10670     10672     10665     10670     10673     10666     10665     10670
     10667     10666     10668     10667     10666     10669     10668     10666     10669
     10670     10673     10674     10670     10673     10675     10670     10673     10676
     10671     10670     10672     10671     10670     10673     10672     10670     10673
     10673     10676     10677     10673     10676     10678     10674     10673     10675
     10674     10673     10676     10675     10673     10676     10676     10678     10679
     10676     10678     10683     10677     10676     10678     10678     10679     10680
     10678     10679     10681     10678     10679     10682     10678     10683     10684
     10678     10683     10685     10678     10683     10686     10679     10678     10683
     10680     10679     10681     10680     10679     10682     10681     10679     10682
     10683     10686     10687     10683     10686     10688     10684     10683     10685
     10684     10683     10686     10685     10683     10686     10687     10686     10688
     10689     10691     10692     10689     10691     10693     10689     10691     10694
     10689     10695     10696     10689     10695     10697     10689     10695     10698
     10690     10689     10691     10690     10689     10695     10691     10689     10695
     10692     10691     10693     10692     10691     10694     10693     10691     10694
     10695     10698     10699     10695     10698     10700     10695     10698     10701
     10696     10695     10697     10696     10695     10698     10697     10695     10698
     10698     10701     10702     10698     10701     10703     10698     10701     10704
     10699     10698     10700     10699     10698     10701     10700     10698     10701
     10701     10704     10705     10701     10704     10706     10701     10704     10710
     10702     10701     10703     10702     10701     10704     10703     10701     10704
     10704     10706     10707     10704     10706     10708     10704     10706     10709
     10704     10710     10711     10704     10710     10712     10704     10710     10713
     10705     10704     10706     10705     10704     10710     10706     10704     10710
     10707     10706     10708     10707     10706     10709     10708     10706     10709
     10711     10710     10712     10711     10710     10713     10712     10710     10713
     10714     10715     10716     10714     10715     10717     10714     10715     10730
     10714     10718     10719     10714     10718     10720     10714     10718     10721
     10714     10722     10723     10714     10722     10724     10714     10722     10725
     10714     10726     10727     10714     10726     10728     10714     10726     10729
     10715     10714     10718     10715     10714     10722     10715     10714     10726
     10715     10730     10731     10715     10730     10732     10715     10730     10736
     10716     10715     10717     10716     10715     10730     10717     10715     10730
     10718     10714     10722     10718     10714     10726     10719     10718     10720
     10719     10718     10721     10720     10718     10721     10722     10714     10726
     10723     10722     10724     10723     10722     10725     10724     10722     10725
     10727     10726     10728     10727     10726     10729     10728     10726     10729
     10730     10736     10733     10731     10730     10732     10731     10730     10736
     10732     10730     10736     10733     10737     10738     10734     10733     10735
     10734     10733     10736     10734     10733     10737     10735     10733     10736
     10735     10733     10737     10736     10733     10737     10737     10738     10739
     10737     10738     10740     10737     10738     10741     10738     10741     10742
     10738     10741     10743     10738     10741     10749     10739     10738     10740
     10739     10738     10741     10740     10738     10741     10741     10743     10744
     10741     10749     10750     10741     10749     10751     10741     10749     10752
     10742     10741     10743     10742     10741     10749     10743     10741     10749
     10743     10744     10745     10743     10744     10746     10744     10746     10747
     10744     10746     10748     10744     10746     10758     10745     10744     10746
     10746     10758     10759     10746     10758     10760     10746     10758     10761
     10747     10746     10748     10747     10746     10758     10748     10746     10758
     10749     10752     10753     10750     10749     10751     10750     10749     10752
     10751     10749     10752     10752     10753     10754     10752     10753     10755
     10753     10755     10756     10753     10755     10757     10753     10755     10805
     10754     10753     10755     10755     10805     10806     10755     10805     10807
     10755     10805     10808     10756     10755     10757     10756     10755     10805
     10757     10755     10805     10758     10761     10762     10758     10761     10763
     10758     10761     10764     10759     10758     10760     10759     10758     10761
     10760     10758     10761     10761     10764     10765     10761     10764     10766
     10762     10761     10763     10762     10761     10764     10763     10761     10764
     10764     10766     10767     10764     10766     10768     10765     10764     10766
     10766     10768     10769     10766     10768     10770     10766     10768     10771
     10767     10766     10768     10768     10771     10772     10768     10771     10773
     10769     10768     10770     10769     10768     10771     10770     10768     10771
     10771     10773     10774     10771     10773     10775     10772     10771     10773
     10773     10775     10776     10773     10775     10777     10773     10775     10778
     10774     10773     10775     10775     10778     10779     10775     10778     10780
     10776     10775     10777     10776     10775     10778     10777     10775     10778
     10778     10780     10781     10778     10780     10782     10779     10778     10780
     10780     10782     10783     10780     10782     10784     10780     10782     10785
     10781     10780     10782     10782     10785     10786     10782     10785     10787
     10783     10782     10784     10783     10782     10785     10784     10782     10785
     10785     10787     10788     10785     10787     10789     10786     10785     10787
     10787     10789     10790     10787     10789     10791     10787     10789     10792
     10788     10787     10789     10789     10792     10793     10789     10792     10794
     10789     10792     10795     10790     10789     10791     10790     10789     10792
     10791     10789     10792     10792     10795     10796     10792     10795     10797
     10792     10795     10798     10793     10792     10794     10793     10792     10795
     10794     10792     10795     10795     10798     10799     10795     10798     10800
     10795     10798     10801     10796     10795     10797     10796     10795     10798
     10797     10795     10798     10798     10801     10802     10798     10801     10803
     10798     10801     10804     10799     10798     10800     10799     10798     10801
     10800     10798     10801     10802     10801     10803     10802     10801     10804
     10803     10801     10804     10805     10808     10809     10805     10808     10810
     10805     10808     10811     10806     10805     10807     10806     10805     10808
     10807     10805     10808     10808     10811     10812     10808     10811     10813
     10808     10811     10814     10809     10808     10810     10809     10808     10811
     10810     10808     10811     10811     10814     10815     10811     10814     10816
     10811     10814     10817     10812     10811     10813     10812     10811     10814
     10813     10811     10814     10814     10817     10818     10814     10817     10819
     10814     10817     10820     10815     10814     10816     10815     10814     10817
     10816     10814     10817     10817     10820     10821     10817     10820     10822
     10817     10820     10823     10818     10817     10819     10818     10817     10820
     10819     10817     10820     10820     10823     10824     10820     10823     10825
     10820     10823     10826     10821     10820     10822     10821     10820     10823
     10822     10820     10823     10823     10826     10827     10823     10826     10828
     10823     10826     10829     10824     10823     10825     10824     10823     10826
     10825     10823     10826     10826     10829     10830     10826     10829     10831
     10826     10829     10832     10827     10826     10828     10827     10826     10829
     10828     10826     10829     10829     10832     10833     10829     10832     10834
     10829     10832     10835     10830     10829     10831     10830     10829     10832
     10831     10829     10832     10832     10835     10836     10832     10835     10837
     10832     10835     10838     10833     10832     10834     10833     10832     10835
     10834     10832     10835     10835     10838     10839     10835     10838     10840
     10835     10838     10841     10836     10835     10837     10836     10835     10838
     10837     10835     10838     10838     10841     10842     10838     10841     10843
     10838     10841     10844     10839     10838     10840     10839     10838     10841
     10840     10838     10841     10841     10844     10845     10841     10844     10846
     10841     10844     10847     10842     10841     10843     10842     10841     10844
     10843     10841     10844     10844     10847     10848     10844     10847     10849
     10844     10847     10850     10845     10844     10846     10845     10844     10847
     10846     10844     10847     10847     10850     10851     10847     10850     10852
     10847     10850     10853     10848     10847     10849     10848     10847     10850
     10849     10847     10850     10851     10850     10852     10851     10850     10853
     10852     10850     10853     10854     10855     10856     10854     10855     10857
     10854     10855     10870     10854     10858     10859     10854     10858     10860
     10854     10858     10861     10854     10862     10863     10854     10862     10864
     10854     10862     10865     10854     10866     10867     10854     10866     10868
     10854     10866     10869     10855     10854     10858     10855     10854     10862
     10855     10854     10866     10855     10870     10871     10855     10870     10872
     10855     10870     10876     10856     10855     10857     10856     10855     10870
     10857     10855     10870     10858     10854     10862     10858     10854     10866
     10859     10858     10860     10859     10858     10861     10860     10858     10861
     10862     10854     10866     10863     10862     10864     10863     10862     10865
     10864     10862     10865     10867     10866     10868     10867     10866     10869
     10868     10866     10869     10870     10876     10873     10871     10870     10872
     10871     10870     10876     10872     10870     10876     10873     10877     10878
     10874     10873     10875     10874     10873     10876     10874     10873     10877
     10875     10873     10876     10875     10873     10877     10876     10873     10877
     10877     10878     10879     10877     10878     10880     10877     10878     10881
     10878     10881     10882     10878     10881     10883     10878     10881     10889
     10879     10878     10880     10879     10878     10881     10880     10878     10881
     10881     10883     10884     10881     10889     10890     10881     10889     10891
     10881     10889     10892     10882     10881     10883     10882     10881     10889
     10883     10881     10889     10883     10884     10885     10883     10884     10886
     10884     10886     10887     10884     10886     10888     10884     10886     10898
     10885     10884     10886     10886     10898     10899     10886     10898     10900
     10886     10898     10901     10887     10886     10888     10887     10886     10898
     10888     10886     10898     10889     10892     10893     10890     10889     10891
     10890     10889     10892     10891     10889     10892     10892     10893     10894
     10892     10893     10895     10893     10895     10896     10893     10895     10897
     10893     10895     10945     10894     10893     10895     10895     10945     10946
     10895     10945     10947     10895     10945     10948     10896     10895     10897
     10896     10895     10945     10897     10895     10945     10898     10901     10902
     10898     10901     10903     10898     10901     10904     10899     10898     10900
     10899     10898     10901     10900     10898     10901     10901     10904     10905
     10901     10904     10906     10902     10901     10903     10902     10901     10904
     10903     10901     10904     10904     10906     10907     10904     10906     10908
     10905     10904     10906     10906     10908     10909     10906     10908     10910
     10906     10908     10911     10907     10906     10908     10908     10911     10912
     10908     10911     10913     10909     10908     10910     10909     10908     10911
     10910     10908     10911     10911     10913     10914     10911     10913     10915
     10912     10911     10913     10913     10915     10916     10913     10915     10917
     10913     10915     10918     10914     10913     10915     10915     10918     10919
     10915     10918     10920     10916     10915     10917     10916     10915     10918
     10917     10915     10918     10918     10920     10921     10918     10920     10922
     10919     10918     10920     10920     10922     10923     10920     10922     10924
     10920     10922     10925     10921     10920     10922     10922     10925     10926
     10922     10925     10927     10923     10922     10924     10923     10922     10925
     10924     10922     10925     10925     10927     10928     10925     10927     10929
     10926     10925     10927     10927     10929     10930     10927     10929     10931
     10927     10929     10932     10928     10927     10929     10929     10932     10933
     10929     10932     10934     10929     10932     10935     10930     10929     10931
     10930     10929     10932     10931     10929     10932     10932     10935     10936
     10932     10935     10937     10932     10935     10938     10933     10932     10934
     10933     10932     10935     10934     10932     10935     10935     10938     10939
     10935     10938     10940     10935     10938     10941     10936     10935     10937
     10936     10935     10938     10937     10935     10938     10938     10941     10942
     10938     10941     10943     10938     10941     10944     10939     10938     10940
     10939     10938     10941     10940     10938     10941     10942     10941     10943
     10942     10941     10944     10943     10941     10944     10945     10948     10949
     10945     10948     10950     10945     10948     10951     10946     10945     10947
     10946     10945     10948     10947     10945     10948     10948     10951     10952
     10948     10951     10953     10948     10951     10954     10949     10948     10950
     10949     10948     10951     10950     10948     10951     10951     10954     10955
     10951     10954     10956     10951     10954     10957     10952     10951     10953
     10952     10951     10954     10953     10951     10954     10954     10957     10958
     10954     10957     10959     10954     10957     10960     10955     10954     10956
     10955     10954     10957     10956     10954     10957     10957     10960     10961
     10957     10960     10962     10957     10960     10963     10958     10957     10959
     10958     10957     10960     10959     10957     10960     10960     10963     10964
     10960     10963     10965     10960     10963     10966     10961     10960     10962
     10961     10960     10963     10962     10960     10963     10963     10966     10967
     10963     10966     10968     10963     10966     10969     10964     10963     10965
     10964     10963     10966     10965     10963     10966     10966     10969     10970
     10966     10969     10971     10966     10969     10972     10967     10966     10968
     10967     10966     10969     10968     10966     10969     10969     10972     10973
     10969     10972     10974     10969     10972     10975     10970     10969     10971
     10970     10969     10972     10971     10969     10972     10972     10975     10976
     10972     10975     10977     10972     10975     10978     10973     10972     10974
     10973     10972     10975     10974     10972     10975     10975     10978     10979
     10975     10978     10980     10975     10978     10981     10976     10975     10977
     10976     10975     10978     10977     10975     10978     10978     10981     10982
     10978     10981     10983     10978     10981     10984     10979     10978     10980
     10979     10978     10981     10980     10978     10981     10981     10984     10985
     10981     10984     10986     10981     10984     10987     10982     10981     10983
     10982     10981     10984     10983     10981     10984     10984     10987     10988
     10984     10987     10989     10984     10987     10990     10985     10984     10986
     10985     10984     10987     10986     10984     10987     10987     10990     10991
     10987     10990     10992     10987     10990     10993     10988     10987     10989
     10988     10987     10990     10989     10987     10990     10991     10990     10992
     10991     10990     10993     10992     10990     10993     10994     10998     10999
     10994     10998     11000     10994     10998     11003     10995     10994     10996
     10995     10994     10997     10995     10994     10998     10996     10994     10997
     10996     10994     10998     10997     10994     10998     10998     11000     11001
     10998     11000     11002     10998     11003     11004     10998     11003     11005
     10998     11003     11009     10999     10998     11000     10999     10998     11003
     11000     10998     11003     11001     11000     11002     11003     11009     11006
     11004     11003     11005     11004     11003     11009     11005     11003     11009
     11006     11010     11011     11007     11006     11008     11007     11006     11009
     11007     11006     11010     11008     11006     11009     11008     11006     11010
     11009     11006     11010     11010     11011     11012     11010     11011     11013
     11010     11011     11014     11011     11014     11015     11011     11014     11016
     11011     11014     11022     11012     11011     11013     11012     11011     11014
     11013     11011     11014     11014     11016     11017     11014     11022     11023
     11014     11022     11024     11014     11022     11025     11015     11014     11016
     11015     11014     11022     11016     11014     11022     11016     11017     11018
     11016     11017     11019     11017     11019     11020     11017     11019     11021
     11017     11019     11031     11018     11017     11019     11019     11031     11032
     11019     11031     11033     11019     11031     11034     11020     11019     11021
     11020     11019     11031     11021     11019     11031     11022     11025     11026
     11023     11022     11024     11023     11022     11025     11024     11022     11025
     11025     11026     11027     11025     11026     11028     11026     11028     11029
     11026     11028     11030     11026     11028     11078     11027     11026     11028
     11028     11078     11079     11028     11078     11080     11028     11078     11081
     11029     11028     11030     11029     11028     11078     11030     11028     11078
     11031     11034     11035     11031     11034     11036     11031     11034     11037
     11032     11031     11033     11032     11031     11034     11033     11031     11034
     11034     11037     11038     11034     11037     11039     11035     11034     11036
     11035     11034     11037     11036     11034     11037     11037     11039     11040
     11037     11039     11041     11038     11037     11039     11039     11041     11042
     11039     11041     11043     11039     11041     11044     11040     11039     11041
     11041     11044     11045     11041     11044     11046     11042     11041     11043
     11042     11041     11044     11043     11041     11044     11044     11046     11047
     11044     11046     11048     11045     11044     11046     11046     11048     11049
     11046     11048     11050     11046     11048     11051     11047     11046     11048
     11048     11051     11052     11048     11051     11053     11049     11048     11050
     11049     11048     11051     11050     11048     11051     11051     11053     11054
     11051     11053     11055     11052     11051     11053     11053     11055     11056
     11053     11055     11057     11053     11055     11058     11054     11053     11055
     11055     11058     11059     11055     11058     11060     11056     11055     11057
     11056     11055     11058     11057     11055     11058     11058     11060     11061
     11058     11060     11062     11059     11058     11060     11060     11062     11063
     11060     11062     11064     11060     11062     11065     11061     11060     11062
     11062     11065     11066     11062     11065     11067     11062     11065     11068
     11063     11062     11064     11063     11062     11065     11064     11062     11065
     11065     11068     11069     11065     11068     11070     11065     11068     11071
     11066     11065     11067     11066     11065     11068     11067     11065     11068
     11068     11071     11072     11068     11071     11073     11068     11071     11074
     11069     11068     11070     11069     11068     11071     11070     11068     11071
     11071     11074     11075     11071     11074     11076     11071     11074     11077
     11072     11071     11073     11072     11071     11074     11073     11071     11074
     11075     11074     11076     11075     11074     11077     11076     11074     11077
     11078     11081     11082     11078     11081     11083     11078     11081     11084
     11079     11078     11080     11079     11078     11081     11080     11078     11081
     11081     11084     11085     11081     11084     11086     11081     11084     11087
     11082     11081     11083     11082     11081     11084     11083     11081     11084
     11084     11087     11088     11084     11087     11089     11084     11087     11090
     11085     11084     11086     11085     11084     11087     11086     11084     11087
     11087     11090     11091     11087     11090     11092     11087     11090     11093
     11088     11087     11089     11088     11087     11090     11089     11087     11090
     11090     11093     11094     11090     11093     11095     11090     11093     11096
     11091     11090     11092     11091     11090     11093     11092     11090     11093
     11093     11096     11097     11093     11096     11098     11093     11096     11099
     11094     11093     11095     11094     11093     11096     11095     11093     11096
     11096     11099     11100     11096     11099     11101     11096     11099     11102
     11097     11096     11098     11097     11096     11099     11098     11096     11099
     11099     11102     11103     11099     11102     11104     11099     11102     11105
     11100     11099     11101     11100     11099     11102     11101     11099     11102
     11102     11105     11106     11102     11105     11107     11102     11105     11108
     11103     11102     11104     11103     11102     11105     11104     11102     11105
     11105     11108     11109     11105     11108     11110     11105     11108     11111
     11106     11105     11107     11106     11105     11108     11107     11105     11108
     11108     11111     11112     11108     11111     11113     11108     11111     11114
     11109     11108     11110     11109     11108     11111     11110     11108     11111
     11111     11114     11115     11111     11114     11116     11111     11114     11117
     11112     11111     11113     11112     11111     11114     11113     11111     11114
     11114     11117     11118     11114     11117     11119     11114     11117     11120
     11115     11114     11116     11115     11114     11117     11116     11114     11117
     11117     11120     11121     11117     11120     11122     11117     11120     11123
     11118     11117     11119     11118     11117     11120     11119     11117     11120
     11120     11123     11124     11120     11123     11125     11120     11123     11126
     11121     11120     11122     11121     11120     11123     11122     11120     11123
     11124     11123     11125     11124     11123     11126     11125     11123     11126
     11127     11129     11130     11127     11131     11132     11127     11131     11133
     11127     11131     11134     11127     11173     11170     11127     11173     11174
     11127     11173     11175     11128     11127     11129     11128     11127     11131
     11128     11127     11173     11129     11127     11131     11129     11127     11173
     11131     11127     11173     11131     11134     11135     11131     11134     11165
     11132     11131     11133     11132     11131     11134     11133     11131     11134
     11134     11135     11136     11134     11135     11137     11134     11165     11163
     11134     11165     11166     11134     11165     11170     11135     11134     11165
     11135     11137     11138     11135     11137     11139     11135     11137     11140
     11136     11135     11137     11137     11140     11141     11137     11140     11142
     11137     11140     11163     11138     11137     11139     11138     11137     11140
     11139     11137     11140     11140     11142     11143     11140     11142     11144
     11140     11142     11152     11140     11163     11160     11140     11163     11164
     11140     11163     11165     11141     11140     11142     11141     11140     11163
     11142     11140     11163     11142     11144     11145     11142     11144     11146
     11142     11144     11147     11142     11152     11150     11142     11152     11153
     11142     11152     11157     11143     11142     11144     11143     11142     11152
     11144     11142     11152     11144     11147     11148     11144     11147     11149
     11144     11147     11150     11145     11144     11146     11145     11144     11147
     11146     11144     11147     11147     11150     11151     11147     11150     11152
     11147     11150     11176     11148     11147     11149     11148     11147     11150
     11149     11147     11150     11150     11152     11153     11150     11152     11157
     11150     11176     11177     11150     11176     11178     11150     11176     11182
     11151     11150     11152     11151     11150     11176     11152     11150     11176
     11152     11153     11154     11152     11153     11155     11152     11153     11156
     11152     11157     11158     11152     11157     11159     11152     11157     11160
     11153     11152     11157     11154     11153     11155     11154     11153     11156
     11155     11153     11156     11157     11160     11161     11157     11160     11162
     11157     11160     11163     11158     11157     11159     11158     11157     11160
     11159     11157     11160     11160     11163     11164     11160     11163     11165
     11161     11160     11162     11161     11160     11163     11162     11160     11163
     11163     11165     11166     11163     11165     11170     11164     11163     11165
     11165     11166     11167     11165     11166     11168     11165     11166     11169
     11165     11170     11171     11165     11170     11172     11165     11170     11173
     11166     11165     11170     11167     11166     11168     11167     11166     11169
     11168     11166     11169     11170     11173     11174     11170     11173     11175
     11171     11170     11172     11171     11170     11173     11172     11170     11173
     11174     11173     11175     11176     11178     11179     11176     11178     11180
     11176     11178     11181     11176     11182     11183     11176     11182     11184
     11176     11182     11185     11177     11176     11178     11177     11176     11182
     11178     11176     11182     11179     11178     11180     11179     11178     11181
     11180     11178     11181     11182     11185     11186     11182     11185     11187
     11182     11185     11188     11183     11182     11184     11183     11182     11185
     11184     11182     11185     11185     11188     11189     11185     11188     11190
     11185     11188     11191     11186     11185     11187     11186     11185     11188
     11187     11185     11188     11188     11191     11192     11188     11191     11193
     11188     11191     11197     11189     11188     11190     11189     11188     11191
     11190     11188     11191     11191     11193     11194     11191     11193     11195
     11191     11193     11196     11191     11197     11198     11191     11197     11199
     11191     11197     11200     11192     11191     11193     11192     11191     11197
     11193     11191     11197     11194     11193     11195     11194     11193     11196
     11195     11193     11196     11198     11197     11199     11198     11197     11200
     11199     11197     11200     11201     11202     11203     11201     11202     11204
     11201     11202     11205     11201     11206     11207     11201     11206     11208
     11201     11206     11209     11201     11210     11211     11201     11210     11212
     11201     11210     11213     11201     11214     11215     11201     11214     11216
     11201     11214     11217     11202     11201     11206     11202     11201     11210
     11202     11201     11214     11203     11202     11204     11203     11202     11205
     11204     11202     11205     11206     11201     11210     11206     11201     11214
     11207     11206     11208     11207     11206     11209     11208     11206     11209
     11210     11201     11214     11211     11210     11212     11211     11210     11213
     11212     11210     11213     11214     11217     11218     11214     11217     11219
     11214     11217     11224     11215     11214     11216     11215     11214     11217
     11216     11214     11217     11217     11224     11220     11218     11217     11219
     11218     11217     11224     11219     11217     11224     11220     11223     11225
     11221     11220     11222     11221     11220     11223     11221     11220     11224
     11222     11220     11223     11222     11220     11224     11223     11220     11224
     11223     11225     11226     11223     11225     11227     11223     11225     11230
     11225     11230     11228     11225     11230     11231     11225     11230     11232
     11226     11225     11227     11226     11225     11230     11227     11225     11230
     11228     11230     11231     11228     11230     11232     11228     11280     11281
     11228     11280     11282     11229     11228     11230     11229     11228     11280
     11230     11228     11280     11230     11232     11233     11230     11232     11234
     11230     11232     11236     11231     11230     11232     11232     11234     11235
     11232     11236     11237     11232     11236     11238     11233     11232     11234
     11233     11232     11236     11234     11232     11236     11236     11238     11239
     11236     11238     11240     11237     11236     11238     11238     11240     11241
     11238     11240     11242     11238     11240     11243     11239     11238     11240
     11240     11243     11244     11240     11243     11245     11240     11243     11246
     11241     11240     11242     11241     11240     11243     11242     11240     11243
     11243     11246     11247     11243     11246     11248     11243     11246     11249
     11244     11243     11245     11244     11243     11246     11245     11243     11246
     11246     11249     11250     11246     11249     11251     11246     11249     11252
     11247     11246     11248     11247     11246     11249     11248     11246     11249
     11249     11252     11253     11249     11252     11254     11249     11252     11255
     11250     11249     11251     11250     11249     11252     11251     11249     11252
     11252     11255     11256     11252     11255     11257     11252     11255     11258
     11253     11252     11254     11253     11252     11255     11254     11252     11255
     11255     11258     11259     11255     11258     11260     11255     11258     11261
     11256     11255     11257     11256     11255     11258     11257     11255     11258
     11258     11261     11262     11258     11261     11263     11258     11261     11264
     11259     11258     11260     11259     11258     11261     11260     11258     11261
     11261     11264     11265     11261     11264     11266     11261     11264     11267
     11262     11261     11263     11262     11261     11264     11263     11261     11264
     11264     11267     11268     11264     11267     11269     11264     11267     11270
     11265     11264     11266     11265     11264     11267     11266     11264     11267
     11267     11270     11271     11267     11270     11272     11267     11270     11273
     11268     11267     11269     11268     11267     11270     11269     11267     11270
     11270     11273     11274     11270     11273     11275     11270     11273     11276
     11271     11270     11272     11271     11270     11273     11272     11270     11273
     11273     11276     11277     11273     11276     11278     11273     11276     11279
     11274     11273     11275     11274     11273     11276     11275     11273     11276
     11277     11276     11278     11277     11276     11279     11278     11276     11279
     11280     11282     11283     11280     11282     11284     11280     11282     11285
     11281     11280     11282     11282     11285     11286     11282     11285     11287
     11282     11285     11288     11283     11282     11284     11283     11282     11285
     11284     11282     11285     11285     11288     11289     11285     11288     11290
     11285     11288     11291     11286     11285     11287     11286     11285     11288
     11287     11285     11288     11288     11291     11292     11288     11291     11293
     11288     11291     11294     11289     11288     11290     11289     11288     11291
     11290     11288     11291     11291     11294     11295     11291     11294     11296
     11291     11294     11297     11292     11291     11293     11292     11291     11294
     11293     11291     11294     11294     11297     11298     11294     11297     11299
     11294     11297     11300     11295     11294     11296     11295     11294     11297
     11296     11294     11297     11297     11300     11301     11297     11300     11302
     11297     11300     11303     11298     11297     11299     11298     11297     11300
     11299     11297     11300     11300     11303     11304     11300     11303     11305
     11301     11300     11302     11301     11300     11303     11302     11300     11303
     11303     11305     11306     11303     11305     11307     11304     11303     11305
     11305     11307     11308     11305     11307     11309     11305     11307     11310
     11306     11305     11307     11307     11310     11311     11307     11310     11312
     11307     11310     11313     11308     11307     11309     11308     11307     11310
     11309     11307     11310     11310     11313     11314     11310     11313     11315
     11310     11313     11316     11311     11310     11312     11311     11310     11313
     11312     11310     11313     11313     11316     11317     11313     11316     11318
     11313     11316     11319     11314     11313     11315     11314     11313     11316
     11315     11313     11316     11316     11319     11320     11316     11319     11321
     11316     11319     11322     11317     11316     11318     11317     11316     11319
     11318     11316     11319     11319     11322     11323     11319     11322     11324
     11319     11322     11325     11320     11319     11321     11320     11319     11322
     11321     11319     11322     11322     11325     11326     11322     11325     11327
     11322     11325     11328     11323     11322     11324     11323     11322     11325
     11324     11322     11325     11325     11328     11329     11325     11328     11330
     11325     11328     11331     11326     11325     11327     11326     11325     11328
     11327     11325     11328     11329     11328     11330     11329     11328     11331
     11330     11328     11331     11332     11336     11337     11332     11336     11338
     11332     11336     11341     11333     11332     11334     11333     11332     11335
     11333     11332     11336     11334     11332     11335     11334     11332     11336
     11335     11332     11336     11336     11338     11339     11336     11338     11340
     11336     11341     11342     11336     11341     11343     11336     11341     11347
     11337     11336     11338     11337     11336     11341     11338     11336     11341
     11339     11338     11340     11341     11347     11344     11342     11341     11343
     11342     11341     11347     11343     11341     11347     11344     11348     11349
     11345     11344     11346     11345     11344     11347     11345     11344     11348
     11346     11344     11347     11346     11344     11348     11347     11344     11348
     11348     11349     11350     11348     11349     11351     11348     11349     11352
     11349     11352     11353     11349     11352     11354     11349     11352     11360
     11350     11349     11351     11350     11349     11352     11351     11349     11352
     11352     11354     11355     11352     11360     11361     11352     11360     11362
     11352     11360     11363     11353     11352     11354     11353     11352     11360
     11354     11352     11360     11354     11355     11356     11354     11355     11357
     11355     11357     11358     11355     11357     11359     11355     11357     11369
     11356     11355     11357     11357     11369     11370     11357     11369     11371
     11357     11369     11372     11358     11357     11359     11358     11357     11369
     11359     11357     11369     11360     11363     11364     11361     11360     11362
     11361     11360     11363     11362     11360     11363     11363     11364     11365
     11363     11364     11366     11364     11366     11367     11364     11366     11368
     11364     11366     11416     11365     11364     11366     11366     11416     11417
     11366     11416     11418     11366     11416     11419     11367     11366     11368
     11367     11366     11416     11368     11366     11416     11369     11372     11373
     11369     11372     11374     11369     11372     11375     11370     11369     11371
     11370     11369     11372     11371     11369     11372     11372     11375     11376
     11372     11375     11377     11373     11372     11374     11373     11372     11375
     11374     11372     11375     11375     11377     11378     11375     11377     11379
     11376     11375     11377     11377     11379     11380     11377     11379     11381
     11377     11379     11382     11378     11377     11379     11379     11382     11383
     11379     11382     11384     11380     11379     11381     11380     11379     11382
     11381     11379     11382     11382     11384     11385     11382     11384     11386
     11383     11382     11384     11384     11386     11387     11384     11386     11388
     11384     11386     11389     11385     11384     11386     11386     11389     11390
     11386     11389     11391     11387     11386     11388     11387     11386     11389
     11388     11386     11389     11389     11391     11392     11389     11391     11393
     11390     11389     11391     11391     11393     11394     11391     11393     11395
     11391     11393     11396     11392     11391     11393     11393     11396     11397
     11393     11396     11398     11394     11393     11395     11394     11393     11396
     11395     11393     11396     11396     11398     11399     11396     11398     11400
     11397     11396     11398     11398     11400     11401     11398     11400     11402
     11398     11400     11403     11399     11398     11400     11400     11403     11404
     11400     11403     11405     11400     11403     11406     11401     11400     11402
     11401     11400     11403     11402     11400     11403     11403     11406     11407
     11403     11406     11408     11403     11406     11409     11404     11403     11405
     11404     11403     11406     11405     11403     11406     11406     11409     11410
     11406     11409     11411     11406     11409     11412     11407     11406     11408
     11407     11406     11409     11408     11406     11409     11409     11412     11413
     11409     11412     11414     11409     11412     11415     11410     11409     11411
     11410     11409     11412     11411     11409     11412     11413     11412     11414
     11413     11412     11415     11414     11412     11415     11416     11419     11420
     11416     11419     11421     11416     11419     11422     11417     11416     11418
     11417     11416     11419     11418     11416     11419     11419     11422     11423
     11419     11422     11424     11419     11422     11425     11420     11419     11421
     11420     11419     11422     11421     11419     11422     11422     11425     11426
     11422     11425     11427     11422     11425     11428     11423     11422     11424
     11423     11422     11425     11424     11422     11425     11425     11428     11429
     11425     11428     11430     11425     11428     11431     11426     11425     11427
     11426     11425     11428     11427     11425     11428     11428     11431     11432
     11428     11431     11433     11428     11431     11434     11429     11428     11430
     11429     11428     11431     11430     11428     11431     11431     11434     11435
     11431     11434     11436     11431     11434     11437     11432     11431     11433
     11432     11431     11434     11433     11431     11434     11434     11437     11438
     11434     11437     11439     11434     11437     11440     11435     11434     11436
     11435     11434     11437     11436     11434     11437     11437     11440     11441
     11437     11440     11442     11437     11440     11443     11438     11437     11439
     11438     11437     11440     11439     11437     11440     11440     11443     11444
     11440     11443     11445     11440     11443     11446     11441     11440     11442
     11441     11440     11443     11442     11440     11443     11443     11446     11447
     11443     11446     11448     11443     11446     11449     11444     11443     11445
     11444     11443     11446     11445     11443     11446     11446     11449     11450
     11446     11449     11451     11446     11449     11452     11447     11446     11448
     11447     11446     11449     11448     11446     11449     11449     11452     11453
     11449     11452     11454     11449     11452     11455     11450     11449     11451
     11450     11449     11452     11451     11449     11452     11452     11455     11456
     11452     11455     11457     11452     11455     11458     11453     11452     11454
     11453     11452     11455     11454     11452     11455     11455     11458     11459
     11455     11458     11460     11455     11458     11461     11456     11455     11457
     11456     11455     11458     11457     11455     11458     11458     11461     11462
     11458     11461     11463     11458     11461     11464     11459     11458     11460
     11459     11458     11461     11460     11458     11461     11462     11461     11463
     11462     11461     11464     11463     11461     11464     11465     11469     11470
     11465     11469     11471     11465     11469     11472     11466     11465     11467
     11466     11465     11468     11466     11465     11469     11467     11465     11468
     11467     11465     11469     11468     11465     11469     11469     11472     11473
     11469     11472     11474     11469     11472     11478     11470     11469     11471
     11470     11469     11472     11471     11469     11472     11472     11478     11475
     11473     11472     11474     11473     11472     11478     11474     11472     11478
     11475     11479     11480     11476     11475     11477     11476     11475     11478
     11476     11475     11479     11477     11475     11478     11477     11475     11479
     11478     11475     11479     11479     11480     11481     11479     11480     11482
     11479     11480     11483     11480     11483     11484     11480     11483     11485
     11480     11483     11491     11481     11480     11482     11481     11480     11483
     11482     11480     11483     11483     11485     11486     11483     11491     11492
     11483     11491     11493     11483     11491     11494     11484     11483     11485
     11484     11483     11491     11485     11483     11491     11485     11486     11487
     11485     11486     11488     11486     11488     11489     11486     11488     11490
     11486     11488     11500     11487     11486     11488     11488     11500     11501
     11488     11500     11502     11488     11500     11503     11489     11488     11490
     11489     11488     11500     11490     11488     11500     11491     11494     11495
     11492     11491     11493     11492     11491     11494     11493     11491     11494
     11494     11495     11496     11494     11495     11497     11495     11497     11498
     11495     11497     11499     11495     11497     11547     11496     11495     11497
     11497     11547     11548     11497     11547     11549     11497     11547     11550
     11498     11497     11499     11498     11497     11547     11499     11497     11547
     11500     11503     11504     11500     11503     11505     11500     11503     11506
     11501     11500     11502     11501     11500     11503     11502     11500     11503
     11503     11506     11507     11503     11506     11508     11503     11506     11509
     11504     11503     11505     11504     11503     11506     11505     11503     11506
     11506     11509     11510     11506     11509     11511     11506     11509     11512
     11507     11506     11508     11507     11506     11509     11508     11506     11509
     11509     11512     11513     11509     11512     11514     11509     11512     11515
     11510     11509     11511     11510     11509     11512     11511     11509     11512
     11512     11515     11516     11512     11515     11517     11512     11515     11518
     11513     11512     11514     11513     11512     11515     11514     11512     11515
     11515     11518     11519     11515     11518     11520     11516     11515     11517
     11516     11515     11518     11517     11515     11518     11518     11520     11521
     11518     11520     11522     11519     11518     11520     11520     11522     11523
     11520     11522     11524     11520     11522     11525     11521     11520     11522
     11522     11525     11526     11522     11525     11527     11522     11525     11528
     11523     11522     11524     11523     11522     11525     11524     11522     11525
     11525     11528     11529     11525     11528     11530     11525     11528     11531
     11526     11525     11527     11526     11525     11528     11527     11525     11528
     11528     11531     11532     11528     11531     11533     11528     11531     11534
     11529     11528     11530     11529     11528     11531     11530     11528     11531
     11531     11534     11535     11531     11534     11536     11531     11534     11537
     11532     11531     11533     11532     11531     11534     11533     11531     11534
     11534     11537     11538     11534     11537     11539     11534     11537     11540
     11535     11534     11536     11535     11534     11537     11536     11534     11537
     11537     11540     11541     11537     11540     11542     11537     11540     11543
     11538     11537     11539     11538     11537     11540     11539     11537     11540
     11540     11543     11544     11540     11543     11545     11540     11543     11546
     11541     11540     11542     11541     11540     11543     11542     11540     11543
     11544     11543     11545     11544     11543     11546     11545     11543     11546
     11547     11550     11551     11547     11550     11552     11547     11550     11553
     11548     11547     11549     11548     11547     11550     11549     11547     11550
     11550     11553     11554     11550     11553     11555     11550     11553     11556
     11551     11550     11552     11551     11550     11553     11552     11550     11553
     11553     11556     11557     11553     11556     11558     11553     11556     11559
     11554     11553     11555     11554     11553     11556     11555     11553     11556
     11556     11559     11560     11556     11559     11561     11556     11559     11562
     11557     11556     11558     11557     11556     11559     11558     11556     11559
     11559     11562     11563     11559     11562     11564     11559     11562     11565
     11560     11559     11561     11560     11559     11562     11561     11559     11562
     11562     11565     11566     11562     11565     11567     11562     11565     11568
     11563     11562     11564     11563     11562     11565     11564     11562     11565
     11565     11568     11569     11565     11568     11570     11565     11568     11571
     11566     11565     11567     11566     11565     11568     11567     11565     11568
     11568     11571     11572     11568     11571     11573     11568     11571     11574
     11569     11568     11570     11569     11568     11571     11570     11568     11571
     11571     11574     11575     11571     11574     11576     11571     11574     11577
     11572     11571     11573     11572     11571     11574     11573     11571     11574
     11574     11577     11578     11574     11577     11579     11574     11577     11580
     11575     11574     11576     11575     11574     11577     11576     11574     11577
     11577     11580     11581     11577     11580     11582     11577     11580     11583
     11578     11577     11579     11578     11577     11580     11579     11577     11580
     11580     11583     11584     11580     11583     11585     11580     11583     11586
     11581     11580     11582     11581     11580     11583     11582     11580     11583
     11583     11586     11587     11583     11586     11588     11583     11586     11589
     11584     11583     11585     11584     11583     11586     11585     11583     11586
     11586     11589     11590     11586     11589     11591     11586     11589     11592
     11587     11586     11588     11587     11586     11589     11588     11586     11589
     11589     11592     11593     11589     11592     11594     11589     11592     11595
     11590     11589     11591     11590     11589     11592     11591     11589     11592
     11593     11592     11594     11593     11592     11595     11594     11592     11595
     11596     11598     11599     11596     11600     11601     11596     11600     11602
     11596     11600     11603     11596     11642     11639     11596     11642     11643
     11596     11642     11644     11597     11596     11598     11597     11596     11600
     11597     11596     11642     11598     11596     11600     11598     11596     11642
     11600     11596     11642     11600     11603     11604     11600     11603     11634
     11601     11600     11602     11601     11600     11603     11602     11600     11603
     11603     11604     11605     11603     11604     11606     11603     11634     11632
     11603     11634     11635     11603     11634     11639     11604     11603     11634
     11604     11606     11607     11604     11606     11608     11604     11606     11609
     11605     11604     11606     11606     11609     11610     11606     11609     11611
     11606     11609     11632     11607     11606     11608     11607     11606     11609
     11608     11606     11609     11609     11611     11612     11609     11611     11613
     11609     11611     11621     11609     11632     11629     11609     11632     11633
     11609     11632     11634     11610     11609     11611     11610     11609     11632
     11611     11609     11632     11611     11613     11614     11611     11613     11615
     11611     11613     11616     11611     11621     11619     11611     11621     11622
     11611     11621     11626     11612     11611     11613     11612     11611     11621
     11613     11611     11621     11613     11616     11617     11613     11616     11618
     11613     11616     11619     11614     11613     11615     11614     11613     11616
     11615     11613     11616     11616     11619     11620     11616     11619     11621
     11616     11619     11645     11617     11616     11618     11617     11616     11619
     11618     11616     11619     11619     11621     11622     11619     11621     11626
     11619     11645     11646     11619     11645     11647     11619     11645     11651
     11620     11619     11621     11620     11619     11645     11621     11619     11645
     11621     11622     11623     11621     11622     11624     11621     11622     11625
     11621     11626     11627     11621     11626     11628     11621     11626     11629
     11622     11621     11626     11623     11622     11624     11623     11622     11625
     11624     11622     11625     11626     11629     11630     11626     11629     11631
     11626     11629     11632     11627     11626     11628     11627     11626     11629
     11628     11626     11629     11629     11632     11633     11629     11632     11634
     11630     11629     11631     11630     11629     11632     11631     11629     11632
     11632     11634     11635     11632     11634     11639     11633     11632     11634
     11634     11635     11636     11634     11635     11637     11634     11635     11638
     11634     11639     11640     11634     11639     11641     11634     11639     11642
     11635     11634     11639     11636     11635     11637     11636     11635     11638
     11637     11635     11638     11639     11642     11643     11639     11642     11644
     11640     11639     11641     11640     11639     11642     11641     11639     11642
     11643     11642     11644     11645     11647     11648     11645     11647     11649
     11645     11647     11650     11645     11651     11652     11645     11651     11653
     11645     11651     11654     11646     11645     11647     11646     11645     11651
     11647     11645     11651     11648     11647     11649     11648     11647     11650
     11649     11647     11650     11651     11654     11655     11651     11654     11656
     11651     11654     11657     11652     11651     11653     11652     11651     11654
     11653     11651     11654     11654     11657     11658     11654     11657     11659
     11654     11657     11660     11655     11654     11656     11655     11654     11657
     11656     11654     11657     11657     11660     11661     11657     11660     11662
     11657     11660     11666     11658     11657     11659     11658     11657     11660
     11659     11657     11660     11660     11662     11663     11660     11662     11664
     11660     11662     11665     11660     11666     11667     11660     11666     11668
     11660     11666     11669     11661     11660     11662     11661     11660     11666
     11662     11660     11666     11663     11662     11664     11663     11662     11665
     11664     11662     11665     11667     11666     11668     11667     11666     11669
     11668     11666     11669     11670     11672     11673     11670     11674     11675
     11670     11674     11676     11670     11674     11677     11670     11716     11713
     11670     11716     11717     11670     11716     11718     11671     11670     11672
     11671     11670     11674     11671     11670     11716     11672     11670     11674
     11672     11670     11716     11674     11670     11716     11674     11677     11678
     11674     11677     11708     11675     11674     11676     11675     11674     11677
     11676     11674     11677     11677     11678     11679     11677     11678     11680
     11677     11708     11706     11677     11708     11709     11677     11708     11713
     11678     11677     11708     11678     11680     11681     11678     11680     11682
     11678     11680     11683     11679     11678     11680     11680     11683     11684
     11680     11683     11685     11680     11683     11706     11681     11680     11682
     11681     11680     11683     11682     11680     11683     11683     11685     11686
     11683     11685     11687     11683     11685     11695     11683     11706     11703
     11683     11706     11707     11683     11706     11708     11684     11683     11685
     11684     11683     11706     11685     11683     11706     11685     11687     11688
     11685     11687     11689     11685     11687     11690     11685     11695     11693
     11685     11695     11696     11685     11695     11700     11686     11685     11687
     11686     11685     11695     11687     11685     11695     11687     11690     11691
     11687     11690     11692     11687     11690     11693     11688     11687     11689
     11688     11687     11690     11689     11687     11690     11690     11693     11694
     11690     11693     11695     11690     11693     11719     11691     11690     11692
     11691     11690     11693     11692     11690     11693     11693     11695     11696
     11693     11695     11700     11693     11719     11720     11693     11719     11721
     11693     11719     11725     11694     11693     11695     11694     11693     11719
     11695     11693     11719     11695     11696     11697     11695     11696     11698
     11695     11696     11699     11695     11700     11701     11695     11700     11702
     11695     11700     11703     11696     11695     11700     11697     11696     11698
     11697     11696     11699     11698     11696     11699     11700     11703     11704
     11700     11703     11705     11700     11703     11706     11701     11700     11702
     11701     11700     11703     11702     11700     11703     11703     11706     11707
     11703     11706     11708     11704     11703     11705     11704     11703     11706
     11705     11703     11706     11706     11708     11709     11706     11708     11713
     11707     11706     11708     11708     11709     11710     11708     11709     11711
     11708     11709     11712     11708     11713     11714     11708     11713     11715
     11708     11713     11716     11709     11708     11713     11710     11709     11711
     11710     11709     11712     11711     11709     11712     11713     11716     11717
     11713     11716     11718     11714     11713     11715     11714     11713     11716
     11715     11713     11716     11717     11716     11718     11719     11721     11722
     11719     11721     11723     11719     11721     11724     11719     11725     11726
     11719     11725     11727     11719     11725     11728     11720     11719     11721
     11720     11719     11725     11721     11719     11725     11722     11721     11723
     11722     11721     11724     11723     11721     11724     11725     11728     11729
     11725     11728     11730     11725     11728     11731     11726     11725     11727
     11726     11725     11728     11727     11725     11728     11728     11731     11732
     11728     11731     11733     11728     11731     11734     11729     11728     11730
     11729     11728     11731     11730     11728     11731     11731     11734     11735
     11731     11734     11736     11731     11734     11740     11732     11731     11733
     11732     11731     11734     11733     11731     11734     11734     11736     11737
     11734     11736     11738     11734     11736     11739     11734     11740     11741
     11734     11740     11742     11734     11740     11743     11735     11734     11736
     11735     11734     11740     11736     11734     11740     11737     11736     11738
     11737     11736     11739     11738     11736     11739     11741     11740     11742
     11741     11740     11743     11742     11740     11743     11744     11746     11747
     11744     11748     11749     11744     11748     11750     11744     11748     11752
     11744     11764     11760     11744     11764     11765     11744     11764     11769
     11745     11744     11746     11745     11744     11748     11745     11744     11764
     11746     11744     11748     11746     11744     11764     11748     11744     11764
     11748     11750     11751     11748     11752     11753     11748     11752     11754
     11748     11752     11756     11749     11748     11750     11749     11748     11752
     11750     11748     11752     11752     11754     11755     11752     11756     11757
     11752     11756     11758     11752     11756     11760     11753     11752     11754
     11753     11752     11756     11754     11752     11756     11756     11758     11759
     11756     11760     11761     11756     11760     11762     11756     11760     11764
     11757     11756     11758     11757     11756     11760     11758     11756     11760
     11760     11762     11763     11760     11764     11765     11760     11764     11769
     11761     11760     11762     11761     11760     11764     11762     11760     11764
     11764     11769     11766     11765     11764     11769     11766     11770     11771
     11767     11766     11768     11767     11766     11769     11767     11766     11770
     11768     11766     11769     11768     11766     11770     11769     11766     11770
     11770     11771     11772     11770     11771     11773     11770     11771     11774
     11771     11774     11775     11771     11774     11776     11771     11774     11782
     11772     11771     11773     11772     11771     11774     11773     11771     11774
     11774     11776     11777     11774     11782     11783     11774     11782     11784
     11774     11782     11785     11775     11774     11776     11775     11774     11782
     11776     11774     11782     11776     11777     11778     11776     11777     11779
     11777     11779     11780     11777     11779     11781     11777     11779     11791
     11778     11777     11779     11779     11791     11792     11779     11791     11793
     11779     11791     11794     11780     11779     11781     11780     11779     11791
     11781     11779     11791     11782     11785     11786     11783     11782     11784
     11783     11782     11785     11784     11782     11785     11785     11786     11787
     11785     11786     11788     11786     11788     11789     11786     11788     11790
     11786     11788     11838     11787     11786     11788     11788     11838     11839
     11788     11838     11840     11788     11838     11841     11789     11788     11790
     11789     11788     11838     11790     11788     11838     11791     11794     11795
     11791     11794     11796     11791     11794     11797     11792     11791     11793
     11792     11791     11794     11793     11791     11794     11794     11797     11798
     11794     11797     11799     11795     11794     11796     11795     11794     11797
     11796     11794     11797     11797     11799     11800     11797     11799     11801
     11798     11797     11799     11799     11801     11802     11799     11801     11803
     11799     11801     11804     11800     11799     11801     11801     11804     11805
     11801     11804     11806     11802     11801     11803     11802     11801     11804
     11803     11801     11804     11804     11806     11807     11804     11806     11808
     11805     11804     11806     11806     11808     11809     11806     11808     11810
     11806     11808     11811     11807     11806     11808     11808     11811     11812
     11808     11811     11813     11809     11808     11810     11809     11808     11811
     11810     11808     11811     11811     11813     11814     11811     11813     11815
     11812     11811     11813     11813     11815     11816     11813     11815     11817
     11813     11815     11818     11814     11813     11815     11815     11818     11819
     11815     11818     11820     11816     11815     11817     11816     11815     11818
     11817     11815     11818     11818     11820     11821     11818     11820     11822
     11819     11818     11820     11820     11822     11823     11820     11822     11824
     11820     11822     11825     11821     11820     11822     11822     11825     11826
     11822     11825     11827     11822     11825     11828     11823     11822     11824
     11823     11822     11825     11824     11822     11825     11825     11828     11829
     11825     11828     11830     11825     11828     11831     11826     11825     11827
     11826     11825     11828     11827     11825     11828     11828     11831     11832
     11828     11831     11833     11828     11831     11834     11829     11828     11830
     11829     11828     11831     11830     11828     11831     11831     11834     11835
     11831     11834     11836     11831     11834     11837     11832     11831     11833
     11832     11831     11834     11833     11831     11834     11835     11834     11836
     11835     11834     11837     11836     11834     11837     11838     11841     11842
     11838     11841     11843     11838     11841     11844     11839     11838     11840
     11839     11838     11841     11840     11838     11841     11841     11844     11845
     11841     11844     11846     11841     11844     11847     11842     11841     11843
     11842     11841     11844     11843     11841     11844     11844     11847     11848
     11844     11847     11849     11844     11847     11850     11845     11844     11846
     11845     11844     11847     11846     11844     11847     11847     11850     11851
     11847     11850     11852     11847     11850     11853     11848     11847     11849
     11848     11847     11850     11849     11847     11850     11850     11853     11854
     11850     11853     11855     11850     11853     11856     11851     11850     11852
     11851     11850     11853     11852     11850     11853     11853     11856     11857
     11853     11856     11858     11853     11856     11859     11854     11853     11855
     11854     11853     11856     11855     11853     11856     11856     11859     11860
     11856     11859     11861     11856     11859     11862     11857     11856     11858
     11857     11856     11859     11858     11856     11859     11859     11862     11863
     11859     11862     11864     11859     11862     11865     11860     11859     11861
     11860     11859     11862     11861     11859     11862     11862     11865     11866
     11862     11865     11867     11862     11865     11868     11863     11862     11864
     11863     11862     11865     11864     11862     11865     11865     11868     11869
     11865     11868     11870     11865     11868     11871     11866     11865     11867
     11866     11865     11868     11867     11865     11868     11868     11871     11872
     11868     11871     11873     11868     11871     11874     11869     11868     11870
     11869     11868     11871     11870     11868     11871     11871     11874     11875
     11871     11874     11876     11871     11874     11877     11872     11871     11873
     11872     11871     11874     11873     11871     11874     11874     11877     11878
     11874     11877     11879     11874     11877     11880     11875     11874     11876
     11875     11874     11877     11876     11874     11877     11877     11880     11881
     11877     11880     11882     11877     11880     11883     11878     11877     11879
     11878     11877     11880     11879     11877     11880     11880     11883     11884
     11880     11883     11885     11880     11883     11886     11881     11880     11882
     11881     11880     11883     11882     11880     11883     11884     11883     11885
     11884     11883     11886     11885     11883     11886     11887     11891     11892
     11887     11891     11893     11887     11891     11896     11888     11887     11889
     11888     11887     11890     11888     11887     11891     11889     11887     11890
     11889     11887     11891     11890     11887     11891     11891     11893     11894
     11891     11893     11895     11891     11896     11897     11891     11896     11898
     11891     11896     11902     11892     11891     11893     11892     11891     11896
     11893     11891     11896     11894     11893     11895     11896     11902     11899
     11897     11896     11898     11897     11896     11902     11898     11896     11902
     11899     11903     11904     11900     11899     11901     11900     11899     11902
     11900     11899     11903     11901     11899     11902     11901     11899     11903
     11902     11899     11903     11903     11904     11905     11903     11904     11906
     11903     11904     11907     11904     11907     11908     11904     11907     11909
     11904     11907     11915     11905     11904     11906     11905     11904     11907
     11906     11904     11907     11907     11909     11910     11907     11915     11916
     11907     11915     11917     11907     11915     11918     11908     11907     11909
     11908     11907     11915     11909     11907     11915     11909     11910     11911
     11909     11910     11912     11910     11912     11913     11910     11912     11914
     11910     11912     11924     11911     11910     11912     11912     11924     11925
     11912     11924     11926     11912     11924     11927     11913     11912     11914
     11913     11912     11924     11914     11912     11924     11915     11918     11919
     11916     11915     11917     11916     11915     11918     11917     11915     11918
     11918     11919     11920     11918     11919     11921     11919     11921     11922
     11919     11921     11923     11919     11921     11971     11920     11919     11921
     11921     11971     11972     11921     11971     11973     11921     11971     11974
     11922     11921     11923     11922     11921     11971     11923     11921     11971
     11924     11927     11928     11924     11927     11929     11924     11927     11930
     11925     11924     11926     11925     11924     11927     11926     11924     11927
     11927     11930     11931     11927     11930     11932     11928     11927     11929
     11928     11927     11930     11929     11927     11930     11930     11932     11933
     11930     11932     11934     11931     11930     11932     11932     11934     11935
     11932     11934     11936     11932     11934     11937     11933     11932     11934
     11934     11937     11938     11934     11937     11939     11935     11934     11936
     11935     11934     11937     11936     11934     11937     11937     11939     11940
     11937     11939     11941     11938     11937     11939     11939     11941     11942
     11939     11941     11943     11939     11941     11944     11940     11939     11941
     11941     11944     11945     11941     11944     11946     11942     11941     11943
     11942     11941     11944     11943     11941     11944     11944     11946     11947
     11944     11946     11948     11945     11944     11946     11946     11948     11949
     11946     11948     11950     11946     11948     11951     11947     11946     11948
     11948     11951     11952     11948     11951     11953     11949     11948     11950
     11949     11948     11951     11950     11948     11951     11951     11953     11954
     11951     11953     11955     11952     11951     11953     11953     11955     11956
     11953     11955     11957     11953     11955     11958     11954     11953     11955
     11955     11958     11959     11955     11958     11960     11955     11958     11961
     11956     11955     11957     11956     11955     11958     11957     11955     11958
     11958     11961     11962     11958     11961     11963     11958     11961     11964
     11959     11958     11960     11959     11958     11961     11960     11958     11961
     11961     11964     11965     11961     11964     11966     11961     11964     11967
     11962     11961     11963     11962     11961     11964     11963     11961     11964
     11964     11967     11968     11964     11967     11969     11964     11967     11970
     11965     11964     11966     11965     11964     11967     11966     11964     11967
     11968     11967     11969     11968     11967     11970     11969     11967     11970
     11971     11974     11975     11971     11974     11976     11971     11974     11977
     11972     11971     11973     11972     11971     11974     11973     11971     11974
     11974     11977     11978     11974     11977     11979     11974     11977     11980
     11975     11974     11976     11975     11974     11977     11976     11974     11977
     11977     11980     11981     11977     11980     11982     11977     11980     11983
     11978     11977     11979     11978     11977     11980     11979     11977     11980
     11980     11983     11984     11980     11983     11985     11980     11983     11986
     11981     11980     11982     11981     11980     11983     11982     11980     11983
     11983     11986     11987     11983     11986     11988     11983     11986     11989
     11984     11983     11985     11984     11983     11986     11985     11983     11986
     11986     11989     11990     11986     11989     11991     11986     11989     11992
     11987     11986     11988     11987     11986     11989     11988     11986     11989
     11989     11992     11993     11989     11992     11994     11989     11992     11995
     11990     11989     11991     11990     11989     11992     11991     11989     11992
     11992     11995     11996     11992     11995     11997     11992     11995     11998
     11993     11992     11994     11993     11992     11995     11994     11992     11995
     11995     11998     11999     11995     11998     12000     11995     11998     12001
     11996     11995     11997     11996     11995     11998     11997     11995     11998
     11998     12001     12002     11998     12001     12003     11998     12001     12004
     11999     11998     12000     11999     11998     12001     12000     11998     12001
     12001     12004     12005     12001     12004     12006     12001     12004     12007
     12002     12001     12003     12002     12001     12004     12003     12001     12004
     12004     12007     12008     12004     12007     12009     12004     12007     12010
     12005     12004     12006     12005     12004     12007     12006     12004     12007
     12007     12010     12011     12007     12010     12012     12007     12010     12013
     12008     12007     12009     12008     12007     12010     12009     12007     12010
     12010     12013     12014     12010     12013     12015     12010     12013     12016
     12011     12010     12012     12011     12010     12013     12012     12010     12013
     12013     12016     12017     12013     12016     12018     12013     12016     12019
     12014     12013     12015     12014     12013     12016     12015     12013     12016
     12017     12016     12018     12017     12016     12019     12018     12016     12019
     12020     12021     12022     12020     12021     12023     12020     12021     12024
     12020     12025     12026     12020     12025     12027     12020     12025     12028
     12020     12029     12030     12020     12029     12031     12020     12029     12032
     12020     12033     12034     12020     12033     12035     12020     12033     12036
     12021     12020     12025     12021     12020     12029     12021     12020     12033
     12022     12021     12023     12022     12021     12024     12023     12021     12024
     12025     12020     12029     12025     12020     12033     12026     12025     12027
     12026     12025     12028     12027     12025     12028     12029     12020     12033
     12030     12029     12031     12030     12029     12032     12031     12029     12032
     12033     12036     12037     12033     12036     12038     12033     12036     12043
     12034     12033     12035     12034     12033     12036     12035     12033     12036
     12036     12043     12039     12037     12036     12038     12037     12036     12043
     12038     12036     12043     12039     12042     12044     12040     12039     12041
     12040     12039     12042     12040     12039     12043     12041     12039     12042
     12041     12039     12043     12042     12039     12043     12042     12044     12045
     12042     12044     12046     12042     12044     12049     12044     12049     12047
     12044     12049     12050     12044     12049     12051     12045     12044     12046
     12045     12044     12049     12046     12044     12049     12047     12049     12050
     12047     12049     12051     12047     12099     12100     12047     12099     12101
     12048     12047     12049     12048     12047     12099     12049     12047     12099
     12049     12051     12052     12049     12051     12053     12049     12051     12055
     12050     12049     12051     12051     12053     12054     12051     12055     12056
     12051     12055     12057     12052     12051     12053     12052     12051     12055
     12053     12051     12055     12055     12057     12058     12055     12057     12059
     12056     12055     12057     12057     12059     12060     12057     12059     12061
     12057     12059     12062     12058     12057     12059     12059     12062     12063
     12059     12062     12064     12059     12062     12065     12060     12059     12061
     12060     12059     12062     12061     12059     12062     12062     12065     12066
     12062     12065     12067     12062     12065     12068     12063     12062     12064
     12063     12062     12065     12064     12062     12065     12065     12068     12069
     12065     12068     12070     12065     12068     12071     12066     12065     12067
     12066     12065     12068     12067     12065     12068     12068     12071     12072
     12068     12071     12073     12068     12071     12074     12069     12068     12070
     12069     12068     12071     12070     12068     12071     12071     12074     12075
     12071     12074     12076     12071     12074     12077     12072     12071     12073
     12072     12071     12074     12073     12071     12074     12074     12077     12078
     12074     12077     12079     12074     12077     12080     12075     12074     12076
     12075     12074     12077     12076     12074     12077     12077     12080     12081
     12077     12080     12082     12077     12080     12083     12078     12077     12079
     12078     12077     12080     12079     12077     12080     12080     12083     12084
     12080     12083     12085     12080     12083     12086     12081     12080     12082
     12081     12080     12083     12082     12080     12083     12083     12086     12087
     12083     12086     12088     12083     12086     12089     12084     12083     12085
     12084     12083     12086     12085     12083     12086     12086     12089     12090
     12086     12089     12091     12086     12089     12092     12087     12086     12088
     12087     12086     12089     12088     12086     12089     12089     12092     12093
     12089     12092     12094     12089     12092     12095     12090     12089     12091
     12090     12089     12092     12091     12089     12092     12092     12095     12096
     12092     12095     12097     12092     12095     12098     12093     12092     12094
     12093     12092     12095     12094     12092     12095     12096     12095     12097
     12096     12095     12098     12097     12095     12098     12099     12101     12102
     12099     12101     12103     12099     12101     12104     12100     12099     12101
     12101     12104     12105     12101     12104     12106     12101     12104     12107
     12102     12101     12103     12102     12101     12104     12103     12101     12104
     12104     12107     12108     12104     12107     12109     12104     12107     12110
     12105     12104     12106     12105     12104     12107     12106     12104     12107
     12107     12110     12111     12107     12110     12112     12107     12110     12113
     12108     12107     12109     12108     12107     12110     12109     12107     12110
     12110     12113     12114     12110     12113     12115     12110     12113     12116
     12111     12110     12112     12111     12110     12113     12112     12110     12113
     12113     12116     12117     12113     12116     12118     12113     12116     12119
     12114     12113     12115     12114     12113     12116     12115     12113     12116
     12116     12119     12120     12116     12119     12121     12116     12119     12122
     12117     12116     12118     12117     12116     12119     12118     12116     12119
     12119     12122     12123     12119     12122     12124     12120     12119     12121
     12120     12119     12122     12121     12119     12122     12122     12124     12125
     12122     12124     12126     12123     12122     12124     12124     12126     12127
     12124     12126     12128     12124     12126     12129     12125     12124     12126
     12126     12129     12130     12126     12129     12131     12126     12129     12132
     12127     12126     12128     12127     12126     12129     12128     12126     12129
     12129     12132     12133     12129     12132     12134     12129     12132     12135
     12130     12129     12131     12130     12129     12132     12131     12129     12132
     12132     12135     12136     12132     12135     12137     12132     12135     12138
     12133     12132     12134     12133     12132     12135     12134     12132     12135
     12135     12138     12139     12135     12138     12140     12135     12138     12141
     12136     12135     12137     12136     12135     12138     12137     12135     12138
     12138     12141     12142     12138     12141     12143     12138     12141     12144
     12139     12138     12140     12139     12138     12141     12140     12138     12141
     12141     12144     12145     12141     12144     12146     12141     12144     12147
     12142     12141     12143     12142     12141     12144     12143     12141     12144
     12144     12147     12148     12144     12147     12149     12144     12147     12150
     12145     12144     12146     12145     12144     12147     12146     12144     12147
     12148     12147     12149     12148     12147     12150     12149     12147     12150
     12151     12155     12156     12151     12155     12157     12151     12155     12158
     12152     12151     12153     12152     12151     12154     12152     12151     12155
     12153     12151     12154     12153     12151     12155     12154     12151     12155
     12155     12158     12159     12155     12158     12160     12155     12158     12164
     12156     12155     12157     12156     12155     12158     12157     12155     12158
     12158     12164     12161     12159     12158     12160     12159     12158     12164
     12160     12158     12164     12161     12165     12166     12162     12161     12163
     12162     12161     12164     12162     12161     12165     12163     12161     12164
     12163     12161     12165     12164     12161     12165     12165     12166     12167
     12165     12166     12168     12165     12166     12169     12166     12169     12170
     12166     12169     12171     12166     12169     12177     12167     12166     12168
     12167     12166     12169     12168     12166     12169     12169     12171     12172
     12169     12177     12178     12169     12177     12179     12169     12177     12180
     12170     12169     12171     12170     12169     12177     12171     12169     12177
     12171     12172     12173     12171     12172     12174     12172     12174     12175
     12172     12174     12176     12172     12174     12186     12173     12172     12174
     12174     12186     12187     12174     12186     12188     12174     12186     12189
     12175     12174     12176     12175     12174     12186     12176     12174     12186
     12177     12180     12181     12178     12177     12179     12178     12177     12180
     12179     12177     12180     12180     12181     12182     12180     12181     12183
     12181     12183     12184     12181     12183     12185     12181     12183     12233
     12182     12181     12183     12183     12233     12234     12183     12233     12235
     12183     12233     12236     12184     12183     12185     12184     12183     12233
     12185     12183     12233     12186     12189     12190     12186     12189     12191
     12186     12189     12192     12187     12186     12188     12187     12186     12189
     12188     12186     12189     12189     12192     12193     12189     12192     12194
     12189     12192     12195     12190     12189     12191     12190     12189     12192
     12191     12189     12192     12192     12195     12196     12192     12195     12197
     12192     12195     12198     12193     12192     12194     12193     12192     12195
     12194     12192     12195     12195     12198     12199     12195     12198     12200
     12195     12198     12201     12196     12195     12197     12196     12195     12198
     12197     12195     12198     12198     12201     12202     12198     12201     12203
     12198     12201     12204     12199     12198     12200     12199     12198     12201
     12200     12198     12201     12201     12204     12205     12201     12204     12206
     12202     12201     12203     12202     12201     12204     12203     12201     12204
     12204     12206     12207     12204     12206     12208     12205     12204     12206
     12206     12208     12209     12206     12208     12210     12206     12208     12211
     12207     12206     12208     12208     12211     12212     12208     12211     12213
     12208     12211     12214     12209     12208     12210     12209     12208     12211
     12210     12208     12211     12211     12214     12215     12211     12214     12216
     12211     12214     12217     12212     12211     12213     12212     12211     12214
     12213     12211     12214     12214     12217     12218     12214     12217     12219
     12214     12217     12220     12215     12214     12216     12215     12214     12217
     12216     12214     12217     12217     12220     12221     12217     12220     12222
     12217     12220     12223     12218     12217     12219     12218     12217     12220
     12219     12217     12220     12220     12223     12224     12220     12223     12225
     12220     12223     12226     12221     12220     12222     12221     12220     12223
     12222     12220     12223     12223     12226     12227     12223     12226     12228
     12223     12226     12229     12224     12223     12225     12224     12223     12226
     12225     12223     12226     12226     12229     12230     12226     12229     12231
     12226     12229     12232     12227     12226     12228     12227     12226     12229
     12228     12226     12229     12230     12229     12231     12230     12229     12232
     12231     12229     12232     12233     12236     12237     12233     12236     12238
     12233     12236     12239     12234     12233     12235     12234     12233     12236
     12235     12233     12236     12236     12239     12240     12236     12239     12241
     12236     12239     12242     12237     12236     12238     12237     12236     12239
     12238     12236     12239     12239     12242     12243     12239     12242     12244
     12239     12242     12245     12240     12239     12241     12240     12239     12242
     12241     12239     12242     12242     12245     12246     12242     12245     12247
     12242     12245     12248     12243     12242     12244     12243     12242     12245
     12244     12242     12245     12245     12248     12249     12245     12248     12250
     12245     12248     12251     12246     12245     12247     12246     12245     12248
     12247     12245     12248     12248     12251     12252     12248     12251     12253
     12248     12251     12254     12249     12248     12250     12249     12248     12251
     12250     12248     12251     12251     12254     12255     12251     12254     12256
     12251     12254     12257     12252     12251     12253     12252     12251     12254
     12253     12251     12254     12254     12257     12258     12254     12257     12259
     12254     12257     12260     12255     12254     12256     12255     12254     12257
     12256     12254     12257     12257     12260     12261     12257     12260     12262
     12257     12260     12263     12258     12257     12259     12258     12257     12260
     12259     12257     12260     12260     12263     12264     12260     12263     12265
     12260     12263     12266     12261     12260     12262     12261     12260     12263
     12262     12260     12263     12263     12266     12267     12263     12266     12268
     12263     12266     12269     12264     12263     12265     12264     12263     12266
     12265     12263     12266     12266     12269     12270     12266     12269     12271
     12266     12269     12272     12267     12266     12268     12267     12266     12269
     12268     12266     12269     12269     12272     12273     12269     12272     12274
     12269     12272     12275     12270     12269     12271     12270     12269     12272
     12271     12269     12272     12272     12275     12276     12272     12275     12277
     12272     12275     12278     12273     12272     12274     12273     12272     12275
     12274     12272     12275     12275     12278     12279     12275     12278     12280
     12275     12278     12281     12276     12275     12277     12276     12275     12278
     12277     12275     12278     12279     12278     12280     12279     12278     12281
     12280     12278     12281     12282     12283     12284     12282     12283     12285
     12282     12283     12286     12282     12287     12288     12282     12287     12289
     12282     12287     12290     12282     12291     12292     12282     12291     12293
     12282     12291     12294     12282     12295     12296     12282     12295     12297
     12282     12295     12298     12283     12282     12287     12283     12282     12291
     12283     12282     12295     12284     12283     12285     12284     12283     12286
     12285     12283     12286     12287     12282     12291     12287     12282     12295
     12288     12287     12289     12288     12287     12290     12289     12287     12290
     12291     12282     12295     12292     12291     12293     12292     12291     12294
     12293     12291     12294     12295     12298     12299     12295     12298     12300
     12295     12298     12305     12296     12295     12297     12296     12295     12298
     12297     12295     12298     12298     12305     12301     12299     12298     12300
     12299     12298     12305     12300     12298     12305     12301     12304     12306
     12302     12301     12303     12302     12301     12304     12302     12301     12305
     12303     12301     12304     12303     12301     12305     12304     12301     12305
     12304     12306     12307     12304     12306     12308     12304     12306     12311
     12306     12311     12309     12306     12311     12312     12306     12311     12313
     12307     12306     12308     12307     12306     12311     12308     12306     12311
     12309     12311     12312     12309     12311     12313     12309     12361     12362
     12309     12361     12363     12310     12309     12311     12310     12309     12361
     12311     12309     12361     12311     12313     12314     12311     12313     12315
     12311     12313     12317     12312     12311     12313     12313     12315     12316
     12313     12317     12318     12313     12317     12319     12314     12313     12315
     12314     12313     12317     12315     12313     12317     12317     12319     12320
     12317     12319     12321     12318     12317     12319     12319     12321     12322
     12319     12321     12323     12319     12321     12324     12320     12319     12321
     12321     12324     12325     12321     12324     12326     12321     12324     12327
     12322     12321     12323     12322     12321     12324     12323     12321     12324
     12324     12327     12328     12324     12327     12329     12324     12327     12330
     12325     12324     12326     12325     12324     12327     12326     12324     12327
     12327     12330     12331     12327     12330     12332     12327     12330     12333
     12328     12327     12329     12328     12327     12330     12329     12327     12330
     12330     12333     12334     12330     12333     12335     12330     12333     12336
     12331     12330     12332     12331     12330     12333     12332     12330     12333
     12333     12336     12337     12333     12336     12338     12333     12336     12339
     12334     12333     12335     12334     12333     12336     12335     12333     12336
     12336     12339     12340     12336     12339     12341     12336     12339     12342
     12337     12336     12338     12337     12336     12339     12338     12336     12339
     12339     12342     12343     12339     12342     12344     12339     12342     12345
     12340     12339     12341     12340     12339     12342     12341     12339     12342
     12342     12345     12346     12342     12345     12347     12342     12345     12348
     12343     12342     12344     12343     12342     12345     12344     12342     12345
     12345     12348     12349     12345     12348     12350     12345     12348     12351
     12346     12345     12347     12346     12345     12348     12347     12345     12348
     12348     12351     12352     12348     12351     12353     12348     12351     12354
     12349     12348     12350     12349     12348     12351     12350     12348     12351
     12351     12354     12355     12351     12354     12356     12351     12354     12357
     12352     12351     12353     12352     12351     12354     12353     12351     12354
     12354     12357     12358     12354     12357     12359     12354     12357     12360
     12355     12354     12356     12355     12354     12357     12356     12354     12357
     12358     12357     12359     12358     12357     12360     12359     12357     12360
     12361     12363     12364     12361     12363     12365     12361     12363     12366
     12362     12361     12363     12363     12366     12367     12363     12366     12368
     12363     12366     12369     12364     12363     12365     12364     12363     12366
     12365     12363     12366     12366     12369     12370     12366     12369     12371
     12366     12369     12372     12367     12366     12368     12367     12366     12369
     12368     12366     12369     12369     12372     12373     12369     12372     12374
     12369     12372     12375     12370     12369     12371     12370     12369     12372
     12371     12369     12372     12372     12375     12376     12372     12375     12377
     12372     12375     12378     12373     12372     12374     12373     12372     12375
     12374     12372     12375     12375     12378     12379     12375     12378     12380
     12375     12378     12381     12376     12375     12377     12376     12375     12378
     12377     12375     12378     12378     12381     12382     12378     12381     12383
     12378     12381     12384     12379     12378     12380     12379     12378     12381
     12380     12378     12381     12381     12384     12385     12381     12384     12386
     12382     12381     12383     12382     12381     12384     12383     12381     12384
     12384     12386     12387     12384     12386     12388     12385     12384     12386
     12386     12388     12389     12386     12388     12390     12386     12388     12391
     12387     12386     12388     12388     12391     12392     12388     12391     12393
     12388     12391     12394     12389     12388     12390     12389     12388     12391
     12390     12388     12391     12391     12394     12395     12391     12394     12396
     12391     12394     12397     12392     12391     12393     12392     12391     12394
     12393     12391     12394     12394     12397     12398     12394     12397     12399
     12394     12397     12400     12395     12394     12396     12395     12394     12397
     12396     12394     12397     12397     12400     12401     12397     12400     12402
     12397     12400     12403     12398     12397     12399     12398     12397     12400
     12399     12397     12400     12400     12403     12404     12400     12403     12405
     12400     12403     12406     12401     12400     12402     12401     12400     12403
     12402     12400     12403     12403     12406     12407     12403     12406     12408
     12403     12406     12409     12404     12403     12405     12404     12403     12406
     12405     12403     12406     12406     12409     12410     12406     12409     12411
     12406     12409     12412     12407     12406     12408     12407     12406     12409
     12408     12406     12409     12410     12409     12411     12410     12409     12412
     12411     12409     12412     12413     12414     12415     12413     12414     12416
     12413     12414     12417     12413     12418     12419     12413     12418     12420
     12413     12418     12421     12413     12422     12423     12413     12422     12424
     12413     12422     12425     12413     12426     12427     12413     12426     12428
     12413     12426     12429     12414     12413     12418     12414     12413     12422
     12414     12413     12426     12415     12414     12416     12415     12414     12417
     12416     12414     12417     12418     12413     12422     12418     12413     12426
     12419     12418     12420     12419     12418     12421     12420     12418     12421
     12422     12413     12426     12423     12422     12424     12423     12422     12425
     12424     12422     12425     12426     12429     12430     12426     12429     12431
     12426     12429     12435     12427     12426     12428     12427     12426     12429
     12428     12426     12429     12429     12435     12432     12430     12429     12431
     12430     12429     12435     12431     12429     12435     12432     12436     12437
     12433     12432     12434     12433     12432     12435     12433     12432     12436
     12434     12432     12435     12434     12432     12436     12435     12432     12436
     12436     12437     12438     12436     12437     12439     12436     12437     12440
     12437     12440     12441     12437     12440     12442     12437     12440     12448
     12438     12437     12439     12438     12437     12440     12439     12437     12440
     12440     12442     12443     12440     12448     12449     12440     12448     12450
     12440     12448     12451     12441     12440     12442     12441     12440     12448
     12442     12440     12448     12442     12443     12444     12442     12443     12445
     12443     12445     12446     12443     12445     12447     12443     12445     12457
     12444     12443     12445     12445     12457     12458     12445     12457     12459
     12445     12457     12460     12446     12445     12447     12446     12445     12457
     12447     12445     12457     12448     12451     12452     12449     12448     12450
     12449     12448     12451     12450     12448     12451     12451     12452     12453
     12451     12452     12454     12452     12454     12455     12452     12454     12456
     12452     12454     12502     12453     12452     12454     12454     12502     12503
     12454     12502     12504     12454     12502     12505     12455     12454     12456
     12455     12454     12502     12456     12454     12502     12457     12460     12461
     12457     12460     12462     12457     12460     12463     12458     12457     12459
     12458     12457     12460     12459     12457     12460     12460     12463     12464
     12460     12463     12465     12460     12463     12466     12461     12460     12462
     12461     12460     12463     12462     12460     12463     12463     12466     12467
     12463     12466     12468     12463     12466     12469     12464     12463     12465
     12464     12463     12466     12465     12463     12466     12466     12469     12470
     12466     12469     12471     12466     12469     12472     12467     12466     12468
     12467     12466     12469     12468     12466     12469     12469     12472     12473
     12469     12472     12474     12469     12472     12475     12470     12469     12471
     12470     12469     12472     12471     12469     12472     12472     12475     12476
     12472     12475     12477     12473     12472     12474     12473     12472     12475
     12474     12472     12475     12475     12477     12478     12475     12477     12479
     12476     12475     12477     12477     12479     12480     12477     12479     12481
     12477     12479     12482     12478     12477     12479     12479     12482     12483
     12479     12482     12484     12480     12479     12481     12480     12479     12482
     12481     12479     12482     12482     12484     12485     12482     12484     12486
     12483     12482     12484     12484     12486     12487     12484     12486     12488
     12484     12486     12489     12485     12484     12486     12486     12489     12490
     12486     12489     12491     12486     12489     12492     12487     12486     12488
     12487     12486     12489     12488     12486     12489     12489     12492     12493
     12489     12492     12494     12489     12492     12495     12490     12489     12491
     12490     12489     12492     12491     12489     12492     12492     12495     12496
     12492     12495     12497     12492     12495     12498     12493     12492     12494
     12493     12492     12495     12494     12492     12495     12495     12498     12499
     12495     12498     12500     12495     12498     12501     12496     12495     12497
     12496     12495     12498     12497     12495     12498     12499     12498     12500
     12499     12498     12501     12500     12498     12501     12502     12505     12506
     12502     12505     12507     12502     12505     12508     12503     12502     12504
     12503     12502     12505     12504     12502     12505     12505     12508     12509
     12505     12508     12510     12505     12508     12511     12506     12505     12507
     12506     12505     12508     12507     12505     12508     12508     12511     12512
     12508     12511     12513     12508     12511     12514     12509     12508     12510
     12509     12508     12511     12510     12508     12511     12511     12514     12515
     12511     12514     12516     12511     12514     12517     12512     12511     12513
     12512     12511     12514     12513     12511     12514     12514     12517     12518
     12514     12517     12519     12514     12517     12520     12515     12514     12516
     12515     12514     12517     12516     12514     12517     12517     12520     12521
     12517     12520     12522     12517     12520     12523     12518     12517     12519
     12518     12517     12520     12519     12517     12520     12520     12523     12524
     12520     12523     12525     12520     12523     12526     12521     12520     12522
     12521     12520     12523     12522     12520     12523     12523     12526     12527
     12523     12526     12528     12523     12526     12529     12524     12523     12525
     12524     12523     12526     12525     12523     12526     12526     12529     12530
     12526     12529     12531     12526     12529     12532     12527     12526     12528
     12527     12526     12529     12528     12526     12529     12529     12532     12533
     12529     12532     12534     12529     12532     12535     12530     12529     12531
     12530     12529     12532     12531     12529     12532     12532     12535     12536
     12532     12535     12537     12532     12535     12538     12533     12532     12534
     12533     12532     12535     12534     12532     12535     12535     12538     12539
     12535     12538     12540     12535     12538     12541     12536     12535     12537
     12536     12535     12538     12537     12535     12538     12538     12541     12542
     12538     12541     12543     12538     12541     12544     12539     12538     12540
     12539     12538     12541     12540     12538     12541     12541     12544     12545
     12541     12544     12546     12541     12544     12547     12542     12541     12543
     12542     12541     12544     12543     12541     12544     12544     12547     12548
     12544     12547     12549     12544     12547     12550     12545     12544     12546
     12545     12544     12547     12546     12544     12547     12548     12547     12549
     12548     12547     12550     12549     12547     12550     12551     12552     12553
     12551     12552     12554     12551     12552     12567     12551     12555     12556
     12551     12555     12557     12551     12555     12558     12551     12559     12560
     12551     12559     12561     12551     12559     12562     12551     12563     12564
     12551     12563     12565     12551     12563     12566     12552     12551     12555
     12552     12551     12559     12552     12551     12563     12552     12567     12568
     12552     12567     12569     12552     12567     12573     12553     12552     12554
     12553     12552     12567     12554     12552     12567     12555     12551     12559
     12555     12551     12563     12556     12555     12557     12556     12555     12558
     12557     12555     12558     12559     12551     12563     12560     12559     12561
     12560     12559     12562     12561     12559     12562     12564     12563     12565
     12564     12563     12566     12565     12563     12566     12567     12573     12570
     12568     12567     12569     12568     12567     12573     12569     12567     12573
     12570     12574     12575     12571     12570     12572     12571     12570     12573
     12571     12570     12574     12572     12570     12573     12572     12570     12574
     12573     12570     12574     12574     12575     12576     12574     12575     12577
     12574     12575     12578     12575     12578     12579     12575     12578     12580
     12575     12578     12586     12576     12575     12577     12576     12575     12578
     12577     12575     12578     12578     12580     12581     12578     12586     12587
     12578     12586     12588     12578     12586     12589     12579     12578     12580
     12579     12578     12586     12580     12578     12586     12580     12581     12582
     12580     12581     12583     12581     12583     12584     12581     12583     12585
     12581     12583     12595     12582     12581     12583     12583     12595     12596
     12583     12595     12597     12583     12595     12598     12584     12583     12585
     12584     12583     12595     12585     12583     12595     12586     12589     12590
     12587     12586     12588     12587     12586     12589     12588     12586     12589
     12589     12590     12591     12589     12590     12592     12590     12592     12593
     12590     12592     12594     12590     12592     12642     12591     12590     12592
     12592     12642     12643     12592     12642     12644     12592     12642     12645
     12593     12592     12594     12593     12592     12642     12594     12592     12642
     12595     12598     12599     12595     12598     12600     12595     12598     12601
     12596     12595     12597     12596     12595     12598     12597     12595     12598
     12598     12601     12602     12598     12601     12603     12599     12598     12600
     12599     12598     12601     12600     12598     12601     12601     12603     12604
     12601     12603     12605     12602     12601     12603     12603     12605     12606
     12603     12605     12607     12603     12605     12608     12604     12603     12605
     12605     12608     12609     12605     12608     12610     12606     12605     12607
     12606     12605     12608     12607     12605     12608     12608     12610     12611
     12608     12610     12612     12609     12608     12610     12610     12612     12613
     12610     12612     12614     12610     12612     12615     12611     12610     12612
     12612     12615     12616     12612     12615     12617     12613     12612     12614
     12613     12612     12615     12614     12612     12615     12615     12617     12618
     12615     12617     12619     12616     12615     12617     12617     12619     12620
     12617     12619     12621     12617     12619     12622     12618     12617     12619
     12619     12622     12623     12619     12622     12624     12620     12619     12621
     12620     12619     12622     12621     12619     12622     12622     12624     12625
     12622     12624     12626     12623     12622     12624     12624     12626     12627
     12624     12626     12628     12624     12626     12629     12625     12624     12626
     12626     12629     12630     12626     12629     12631     12626     12629     12632
     12627     12626     12628     12627     12626     12629     12628     12626     12629
     12629     12632     12633     12629     12632     12634     12629     12632     12635
     12630     12629     12631     12630     12629     12632     12631     12629     12632
     12632     12635     12636     12632     12635     12637     12632     12635     12638
     12633     12632     12634     12633     12632     12635     12634     12632     12635
     12635     12638     12639     12635     12638     12640     12635     12638     12641
     12636     12635     12637     12636     12635     12638     12637     12635     12638
     12639     12638     12640     12639     12638     12641     12640     12638     12641
     12642     12645     12646     12642     12645     12647     12642     12645     12648
     12643     12642     12644     12643     12642     12645     12644     12642     12645
     12645     12648     12649     12645     12648     12650     12645     12648     12651
     12646     12645     12647     12646     12645     12648     12647     12645     12648
     12648     12651     12652     12648     12651     12653     12648     12651     12654
     12649     12648     12650     12649     12648     12651     12650     12648     12651
     12651     12654     12655     12651     12654     12656     12651     12654     12657
     12652     12651     12653     12652     12651     12654     12653     12651     12654
     12654     12657     12658     12654     12657     12659     12654     12657     12660
     12655     12654     12656     12655     12654     12657     12656     12654     12657
     12657     12660     12661     12657     12660     12662     12657     12660     12663
     12658     12657     12659     12658     12657     12660     12659     12657     12660
     12660     12663     12664     12660     12663     12665     12660     12663     12666
     12661     12660     12662     12661     12660     12663     12662     12660     12663
     12663     12666     12667     12663     12666     12668     12663     12666     12669
     12664     12663     12665     12664     12663     12666     12665     12663     12666
     12666     12669     12670     12666     12669     12671     12666     12669     12672
     12667     12666     12668     12667     12666     12669     12668     12666     12669
     12669     12672     12673     12669     12672     12674     12669     12672     12675
     12670     12669     12671     12670     12669     12672     12671     12669     12672
     12672     12675     12676     12672     12675     12677     12672     12675     12678
     12673     12672     12674     12673     12672     12675     12674     12672     12675
     12675     12678     12679     12675     12678     12680     12675     12678     12681
     12676     12675     12677     12676     12675     12678     12677     12675     12678
     12678     12681     12682     12678     12681     12683     12678     12681     12684
     12679     12678     12680     12679     12678     12681     12680     12678     12681
     12681     12684     12685     12681     12684     12686     12681     12684     12687
     12682     12681     12683     12682     12681     12684     12683     12681     12684
     12684     12687     12688     12684     12687     12689     12684     12687     12690
     12685     12684     12686     12685     12684     12687     12686     12684     12687
     12688     12687     12689     12688     12687     12690     12689     12687     12690
     12691     12693     12694     12691     12695     12696     12691     12695     12697
     12691     12695     12698     12691     12737     12734     12691     12737     12738
     12691     12737     12739     12692     12691     12693     12692     12691     12695
     12692     12691     12737     12693     12691     12695     12693     12691     12737
     12695     12691     12737     12695     12698     12699     12695     12698     12729
     12696     12695     12697     12696     12695     12698     12697     12695     12698
     12698     12699     12700     12698     12699     12701     12698     12729     12727
     12698     12729     12730     12698     12729     12734     12699     12698     12729
     12699     12701     12702     12699     12701     12703     12699     12701     12704
     12700     12699     12701     12701     12704     12705     12701     12704     12706
     12701     12704     12727     12702     12701     12703     12702     12701     12704
     12703     12701     12704     12704     12706     12707     12704     12706     12708
     12704     12706     12716     12704     12727     12724     12704     12727     12728
     12704     12727     12729     12705     12704     12706     12705     12704     12727
     12706     12704     12727     12706     12708     12709     12706     12708     12710
     12706     12708     12711     12706     12716     12714     12706     12716     12717
     12706     12716     12721     12707     12706     12708     12707     12706     12716
     12708     12706     12716     12708     12711     12712     12708     12711     12713
     12708     12711     12714     12709     12708     12710     12709     12708     12711
     12710     12708     12711     12711     12714     12715     12711     12714     12716
     12711     12714     12740     12712     12711     12713     12712     12711     12714
     12713     12711     12714     12714     12716     12717     12714     12716     12721
     12714     12740     12741     12714     12740     12742     12714     12740     12746
     12715     12714     12716     12715     12714     12740     12716     12714     12740
     12716     12717     12718     12716     12717     12719     12716     12717     12720
     12716     12721     12722     12716     12721     12723     12716     12721     12724
     12717     12716     12721     12718     12717     12719     12718     12717     12720
     12719     12717     12720     12721     12724     12725     12721     12724     12726
     12721     12724     12727     12722     12721     12723     12722     12721     12724
     12723     12721     12724     12724     12727     12728     12724     12727     12729
     12725     12724     12726     12725     12724     12727     12726     12724     12727
     12727     12729     12730     12727     12729     12734     12728     12727     12729
     12729     12730     12731     12729     12730     12732     12729     12730     12733
     12729     12734     12735     12729     12734     12736     12729     12734     12737
     12730     12729     12734     12731     12730     12732     12731     12730     12733
     12732     12730     12733     12734     12737     12738     12734     12737     12739
     12735     12734     12736     12735     12734     12737     12736     12734     12737
     12738     12737     12739     12740     12742     12743     12740     12742     12744
     12740     12742     12745     12740     12746     12747     12740     12746     12748
     12740     12746     12749     12741     12740     12742     12741     12740     12746
     12742     12740     12746     12743     12742     12744     12743     12742     12745
     12744     12742     12745     12746     12749     12750     12746     12749     12751
     12746     12749     12752     12747     12746     12748     12747     12746     12749
     12748     12746     12749     12749     12752     12753     12749     12752     12754
     12749     12752     12755     12750     12749     12751     12750     12749     12752
     12751     12749     12752     12752     12755     12756     12752     12755     12757
     12752     12755     12761     12753     12752     12754     12753     12752     12755
     12754     12752     12755     12755     12757     12758     12755     12757     12759
     12755     12757     12760     12755     12761     12762     12755     12761     12763
     12755     12761     12764     12756     12755     12757     12756     12755     12761
     12757     12755     12761     12758     12757     12759     12758     12757     12760
     12759     12757     12760     12762     12761     12763     12762     12761     12764
     12763     12761     12764     12765     12767     12768     12765     12769     12770
     12765     12769     12771     12765     12769     12772     12765     12811     12808
     12765     12811     12812     12765     12811     12813     12766     12765     12767
     12766     12765     12769     12766     12765     12811     12767     12765     12769
     12767     12765     12811     12769     12765     12811     12769     12772     12773
     12769     12772     12803     12770     12769     12771     12770     12769     12772
     12771     12769     12772     12772     12773     12774     12772     12773     12775
     12772     12803     12801     12772     12803     12804     12772     12803     12808
     12773     12772     12803     12773     12775     12776     12773     12775     12777
     12773     12775     12778     12774     12773     12775     12775     12778     12779
     12775     12778     12780     12775     12778     12801     12776     12775     12777
     12776     12775     12778     12777     12775     12778     12778     12780     12781
     12778     12780     12782     12778     12780     12790     12778     12801     12798
     12778     12801     12802     12778     12801     12803     12779     12778     12780
     12779     12778     12801     12780     12778     12801     12780     12782     12783
     12780     12782     12784     12780     12782     12785     12780     12790     12788
     12780     12790     12791     12780     12790     12795     12781     12780     12782
     12781     12780     12790     12782     12780     12790     12782     12785     12786
     12782     12785     12787     12782     12785     12788     12783     12782     12784
     12783     12782     12785     12784     12782     12785     12785     12788     12789
     12785     12788     12790     12785     12788     12814     12786     12785     12787
     12786     12785     12788     12787     12785     12788     12788     12790     12791
     12788     12790     12795     12788     12814     12815     12788     12814     12816
     12788     12814     12820     12789     12788     12790     12789     12788     12814
     12790     12788     12814     12790     12791     12792     12790     12791     12793
     12790     12791     12794     12790     12795     12796     12790     12795     12797
     12790     12795     12798     12791     12790     12795     12792     12791     12793
     12792     12791     12794     12793     12791     12794     12795     12798     12799
     12795     12798     12800     12795     12798     12801     12796     12795     12797
     12796     12795     12798     12797     12795     12798     12798     12801     12802
     12798     12801     12803     12799     12798     12800     12799     12798     12801
     12800     12798     12801     12801     12803     12804     12801     12803     12808
     12802     12801     12803     12803     12804     12805     12803     12804     12806
     12803     12804     12807     12803     12808     12809     12803     12808     12810
     12803     12808     12811     12804     12803     12808     12805     12804     12806
     12805     12804     12807     12806     12804     12807     12808     12811     12812
     12808     12811     12813     12809     12808     12810     12809     12808     12811
     12810     12808     12811     12812     12811     12813     12814     12816     12817
     12814     12816     12818     12814     12816     12819     12814     12820     12821
     12814     12820     12822     12814     12820     12823     12815     12814     12816
     12815     12814     12820     12816     12814     12820     12817     12816     12818
     12817     12816     12819     12818     12816     12819     12820     12823     12824
     12820     12823     12825     12820     12823     12826     12821     12820     12822
     12821     12820     12823     12822     12820     12823     12823     12826     12827
     12823     12826     12828     12823     12826     12829     12824     12823     12825
     12824     12823     12826     12825     12823     12826     12826     12829     12830
     12826     12829     12831     12826     12829     12835     12827     12826     12828
     12827     12826     12829     12828     12826     12829     12829     12831     12832
     12829     12831     12833     12829     12831     12834     12829     12835     12836
     12829     12835     12837     12829     12835     12838     12830     12829     12831
     12830     12829     12835     12831     12829     12835     12832     12831     12833
     12832     12831     12834     12833     12831     12834     12836     12835     12837
     12836     12835     12838     12837     12835     12838     12839     12843     12844
     12839     12843     12845     12839     12843     12846     12840     12839     12841
     12840     12839     12842     12840     12839     12843     12841     12839     12842
     12841     12839     12843     12842     12839     12843     12843     12846     12847
     12843     12846     12848     12843     12846     12852     12844     12843     12845
     12844     12843     12846     12845     12843     12846     12846     12852     12849
     12847     12846     12848     12847     12846     12852     12848     12846     12852
     12849     12853     12854     12850     12849     12851     12850     12849     12852
     12850     12849     12853     12851     12849     12852     12851     12849     12853
     12852     12849     12853     12853     12854     12855     12853     12854     12856
     12853     12854     12857     12854     12857     12858     12854     12857     12859
     12854     12857     12865     12855     12854     12856     12855     12854     12857
     12856     12854     12857     12857     12859     12860     12857     12865     12866
     12857     12865     12867     12857     12865     12868     12858     12857     12859
     12858     12857     12865     12859     12857     12865     12859     12860     12861
     12859     12860     12862     12860     12862     12863     12860     12862     12864
     12860     12862     12874     12861     12860     12862     12862     12874     12875
     12862     12874     12876     12862     12874     12877     12863     12862     12864
     12863     12862     12874     12864     12862     12874     12865     12868     12869
     12866     12865     12867     12866     12865     12868     12867     12865     12868
     12868     12869     12870     12868     12869     12871     12869     12871     12872
     12869     12871     12873     12869     12871     12921     12870     12869     12871
     12871     12921     12922     12871     12921     12923     12871     12921     12924
     12872     12871     12873     12872     12871     12921     12873     12871     12921
     12874     12877     12878     12874     12877     12879     12874     12877     12880
     12875     12874     12876     12875     12874     12877     12876     12874     12877
     12877     12880     12881     12877     12880     12882     12878     12877     12879
     12878     12877     12880     12879     12877     12880     12880     12882     12883
     12880     12882     12884     12881     12880     12882     12882     12884     12885
     12882     12884     12886     12882     12884     12887     12883     12882     12884
     12884     12887     12888     12884     12887     12889     12885     12884     12886
     12885     12884     12887     12886     12884     12887     12887     12889     12890
     12887     12889     12891     12888     12887     12889     12889     12891     12892
     12889     12891     12893     12889     12891     12894     12890     12889     12891
     12891     12894     12895     12891     12894     12896     12892     12891     12893
     12892     12891     12894     12893     12891     12894     12894     12896     12897
     12894     12896     12898     12895     12894     12896     12896     12898     12899
     12896     12898     12900     12896     12898     12901     12897     12896     12898
     12898     12901     12902     12898     12901     12903     12899     12898     12900
     12899     12898     12901     12900     12898     12901     12901     12903     12904
     12901     12903     12905     12902     12901     12903     12903     12905     12906
     12903     12905     12907     12903     12905     12908     12904     12903     12905
     12905     12908     12909     12905     12908     12910     12905     12908     12911
     12906     12905     12907     12906     12905     12908     12907     12905     12908
     12908     12911     12912     12908     12911     12913     12908     12911     12914
     12909     12908     12910     12909     12908     12911     12910     12908     12911
     12911     12914     12915     12911     12914     12916     12911     12914     12917
     12912     12911     12913     12912     12911     12914     12913     12911     12914
     12914     12917     12918     12914     12917     12919     12914     12917     12920
     12915     12914     12916     12915     12914     12917     12916     12914     12917
     12918     12917     12919     12918     12917     12920     12919     12917     12920
     12921     12924     12925     12921     12924     12926     12921     12924     12927
     12922     12921     12923     12922     12921     12924     12923     12921     12924
     12924     12927     12928     12924     12927     12929     12924     12927     12930
     12925     12924     12926     12925     12924     12927     12926     12924     12927
     12927     12930     12931     12927     12930     12932     12927     12930     12933
     12928     12927     12929     12928     12927     12930     12929     12927     12930
     12930     12933     12934     12930     12933     12935     12930     12933     12936
     12931     12930     12932     12931     12930     12933     12932     12930     12933
     12933     12936     12937     12933     12936     12938     12933     12936     12939
     12934     12933     12935     12934     12933     12936     12935     12933     12936
     12936     12939     12940     12936     12939     12941     12936     12939     12942
     12937     12936     12938     12937     12936     12939     12938     12936     12939
     12939     12942     12943     12939     12942     12944     12939     12942     12945
     12940     12939     12941     12940     12939     12942     12941     12939     12942
     12942     12945     12946     12942     12945     12947     12942     12945     12948
     12943     12942     12944     12943     12942     12945     12944     12942     12945
     12945     12948     12949     12945     12948     12950     12945     12948     12951
     12946     12945     12947     12946     12945     12948     12947     12945     12948
     12948     12951     12952     12948     12951     12953     12948     12951     12954
     12949     12948     12950     12949     12948     12951     12950     12948     12951
     12951     12954     12955     12951     12954     12956     12951     12954     12957
     12952     12951     12953     12952     12951     12954     12953     12951     12954
     12954     12957     12958     12954     12957     12959     12954     12957     12960
     12955     12954     12956     12955     12954     12957     12956     12954     12957
     12957     12960     12961     12957     12960     12962     12957     12960     12963
     12958     12957     12959     12958     12957     12960     12959     12957     12960
     12960     12963     12964     12960     12963     12965     12960     12963     12966
     12961     12960     12962     12961     12960     12963     12962     12960     12963
     12963     12966     12967     12963     12966     12968     12963     12966     12969
     12964     12963     12965     12964     12963     12966     12965     12963     12966
     12967     12966     12968     12967     12966     12969     12968     12966     12969
     12970     12971     12972     12970     12971     12973     12970     12971     12986
     12970     12974     12975     12970     12974     12976     12970     12974     12977
     12970     12978     12979     12970     12978     12980     12970     12978     12981
     12970     12982     12983     12970     12982     12984     12970     12982     12985
     12971     12970     12974     12971     12970     12978     12971     12970     12982
     12971     12986     12987     12971     12986     12988     12971     12986     12992
     12972     12971     12973     12972     12971     12986     12973     12971     12986
     12974     12970     12978     12974     12970     12982     12975     12974     12976
     12975     12974     12977     12976     12974     12977     12978     12970     12982
     12979     12978     12980     12979     12978     12981     12980     12978     12981
     12983     12982     12984     12983     12982     12985     12984     12982     12985
     12986     12992     12989     12987     12986     12988     12987     12986     12992
     12988     12986     12992     12989     12993     12994     12990     12989     12991
     12990     12989     12992     12990     12989     12993     12991     12989     12992
     12991     12989     12993     12992     12989     12993     12993     12994     12995
     12993     12994     12996     12993     12994     12997     12994     12997     12998
     12994     12997     12999     12994     12997     13005     12995     12994     12996
     12995     12994     12997     12996     12994     12997     12997     12999     13000
     12997     13005     13006     12997     13005     13007     12997     13005     13008
     12998     12997     12999     12998     12997     13005     12999     12997     13005
     12999     13000     13001     12999     13000     13002     13000     13002     13003
     13000     13002     13004     13000     13002     13014     13001     13000     13002
     13002     13014     13015     13002     13014     13016     13002     13014     13017
     13003     13002     13004     13003     13002     13014     13004     13002     13014
     13005     13008     13009     13006     13005     13007     13006     13005     13008
     13007     13005     13008     13008     13009     13010     13008     13009     13011
     13009     13011     13012     13009     13011     13013     13009     13011     13061
     13010     13009     13011     13011     13061     13062     13011     13061     13063
     13011     13061     13064     13012     13011     13013     13012     13011     13061
     13013     13011     13061     13014     13017     13018     13014     13017     13019
     13014     13017     13020     13015     13014     13016     13015     13014     13017
     13016     13014     13017     13017     13020     13021     13017     13020     13022
     13018     13017     13019     13018     13017     13020     13019     13017     13020
     13020     13022     13023     13020     13022     13024     13021     13020     13022
     13022     13024     13025     13022     13024     13026     13022     13024     13027
     13023     13022     13024     13024     13027     13028     13024     13027     13029
     13025     13024     13026     13025     13024     13027     13026     13024     13027
     13027     13029     13030     13027     13029     13031     13028     13027     13029
     13029     13031     13032     13029     13031     13033     13029     13031     13034
     13030     13029     13031     13031     13034     13035     13031     13034     13036
     13032     13031     13033     13032     13031     13034     13033     13031     13034
     13034     13036     13037     13034     13036     13038     13035     13034     13036
     13036     13038     13039     13036     13038     13040     13036     13038     13041
     13037     13036     13038     13038     13041     13042     13038     13041     13043
     13039     13038     13040     13039     13038     13041     13040     13038     13041
     13041     13043     13044     13041     13043     13045     13042     13041     13043
     13043     13045     13046     13043     13045     13047     13043     13045     13048
     13044     13043     13045     13045     13048     13049     13045     13048     13050
     13045     13048     13051     13046     13045     13047     13046     13045     13048
     13047     13045     13048     13048     13051     13052     13048     13051     13053
     13048     13051     13054     13049     13048     13050     13049     13048     13051
     13050     13048     13051     13051     13054     13055     13051     13054     13056
     13051     13054     13057     13052     13051     13053     13052     13051     13054
     13053     13051     13054     13054     13057     13058     13054     13057     13059
     13054     13057     13060     13055     13054     13056     13055     13054     13057
     13056     13054     13057     13058     13057     13059     13058     13057     13060
     13059     13057     13060     13061     13064     13065     13061     13064     13066
     13061     13064     13067     13062     13061     13063     13062     13061     13064
     13063     13061     13064     13064     13067     13068     13064     13067     13069
     13064     13067     13070     13065     13064     13066     13065     13064     13067
     13066     13064     13067     13067     13070     13071     13067     13070     13072
     13067     13070     13073     13068     13067     13069     13068     13067     13070
     13069     13067     13070     13070     13073     13074     13070     13073     13075
     13070     13073     13076     13071     13070     13072     13071     13070     13073
     13072     13070     13073     13073     13076     13077     13073     13076     13078
     13073     13076     13079     13074     13073     13075     13074     13073     13076
     13075     13073     13076     13076     13079     13080     13076     13079     13081
     13076     13079     13082     13077     13076     13078     13077     13076     13079
     13078     13076     13079     13079     13082     13083     13079     13082     13084
     13079     13082     13085     13080     13079     13081     13080     13079     13082
     13081     13079     13082     13082     13085     13086     13082     13085     13087
     13082     13085     13088     13083     13082     13084     13083     13082     13085
     13084     13082     13085     13085     13088     13089     13085     13088     13090
     13085     13088     13091     13086     13085     13087     13086     13085     13088
     13087     13085     13088     13088     13091     13092     13088     13091     13093
     13088     13091     13094     13089     13088     13090     13089     13088     13091
     13090     13088     13091     13091     13094     13095     13091     13094     13096
     13091     13094     13097     13092     13091     13093     13092     13091     13094
     13093     13091     13094     13094     13097     13098     13094     13097     13099
     13094     13097     13100     13095     13094     13096     13095     13094     13097
     13096     13094     13097     13097     13100     13101     13097     13100     13102
     13097     13100     13103     13098     13097     13099     13098     13097     13100
     13099     13097     13100     13100     13103     13104     13100     13103     13105
     13100     13103     13106     13101     13100     13102     13101     13100     13103
     13102     13100     13103     13103     13106     13107     13103     13106     13108
     13103     13106     13109     13104     13103     13105     13104     13103     13106
     13105     13103     13106     13107     13106     13108     13107     13106     13109
     13108     13106     13109     13110     13111     13112     13110     13111     13113
     13110     13111     13114     13110     13115     13116     13110     13115     13117
     13110     13115     13118     13110     13119     13120     13110     13119     13121
     13110     13119     13122     13110     13123     13124     13110     13123     13125
     13110     13123     13126     13111     13110     13115     13111     13110     13119
     13111     13110     13123     13112     13111     13113     13112     13111     13114
     13113     13111     13114     13115     13110     13119     13115     13110     13123
     13116     13115     13117     13116     13115     13118     13117     13115     13118
     13119     13110     13123     13120     13119     13121     13120     13119     13122
     13121     13119     13122     13123     13126     13127     13123     13126     13128
     13123     13126     13132     13124     13123     13125     13124     13123     13126
     13125     13123     13126     13126     13132     13129     13127     13126     13128
     13127     13126     13132     13128     13126     13132     13129     13133     13134
     13130     13129     13131     13130     13129     13132     13130     13129     13133
     13131     13129     13132     13131     13129     13133     13132     13129     13133
     13133     13134     13135     13133     13134     13136     13133     13134     13137
     13134     13137     13138     13134     13137     13139     13134     13137     13145
     13135     13134     13136     13135     13134     13137     13136     13134     13137
     13137     13139     13140     13137     13145     13146     13137     13145     13147
     13137     13145     13148     13138     13137     13139     13138     13137     13145
     13139     13137     13145     13139     13140     13141     13139     13140     13142
     13140     13142     13143     13140     13142     13144     13140     13142     13154
     13141     13140     13142     13142     13154     13155     13142     13154     13156
     13142     13154     13157     13143     13142     13144     13143     13142     13154
     13144     13142     13154     13145     13148     13149     13146     13145     13147
     13146     13145     13148     13147     13145     13148     13148     13149     13150
     13148     13149     13151     13149     13151     13152     13149     13151     13153
     13149     13151     13199     13150     13149     13151     13151     13199     13200
     13151     13199     13201     13151     13199     13202     13152     13151     13153
     13152     13151     13199     13153     13151     13199     13154     13157     13158
     13154     13157     13159     13154     13157     13160     13155     13154     13156
     13155     13154     13157     13156     13154     13157     13157     13160     13161
     13157     13160     13162     13157     13160     13163     13158     13157     13159
     13158     13157     13160     13159     13157     13160     13160     13163     13164
     13160     13163     13165     13160     13163     13166     13161     13160     13162
     13161     13160     13163     13162     13160     13163     13163     13166     13167
     13163     13166     13168     13163     13166     13169     13164     13163     13165
     13164     13163     13166     13165     13163     13166     13166     13169     13170
     13166     13169     13171     13166     13169     13172     13167     13166     13168
     13167     13166     13169     13168     13166     13169     13169     13172     13173
     13169     13172     13174     13170     13169     13171     13170     13169     13172
     13171     13169     13172     13172     13174     13175     13172     13174     13176
     13173     13172     13174     13174     13176     13177     13174     13176     13178
     13174     13176     13179     13175     13174     13176     13176     13179     13180
     13176     13179     13181     13177     13176     13178     13177     13176     13179
     13178     13176     13179     13179     13181     13182     13179     13181     13183
     13180     13179     13181     13181     13183     13184     13181     13183     13185
     13181     13183     13186     13182     13181     13183     13183     13186     13187
     13183     13186     13188     13183     13186     13189     13184     13183     13185
     13184     13183     13186     13185     13183     13186     13186     13189     13190
     13186     13189     13191     13186     13189     13192     13187     13186     13188
     13187     13186     13189     13188     13186     13189     13189     13192     13193
     13189     13192     13194     13189     13192     13195     13190     13189     13191
     13190     13189     13192     13191     13189     13192     13192     13195     13196
     13192     13195     13197     13192     13195     13198     13193     13192     13194
     13193     13192     13195     13194     13192     13195     13196     13195     13197
     13196     13195     13198     13197     13195     13198     13199     13202     13203
     13199     13202     13204     13199     13202     13205     13200     13199     13201
     13200     13199     13202     13201     13199     13202     13202     13205     13206
     13202     13205     13207     13202     13205     13208     13203     13202     13204
     13203     13202     13205     13204     13202     13205     13205     13208     13209
     13205     13208     13210     13205     13208     13211     13206     13205     13207
     13206     13205     13208     13207     13205     13208     13208     13211     13212
     13208     13211     13213     13208     13211     13214     13209     13208     13210
     13209     13208     13211     13210     13208     13211     13211     13214     13215
     13211     13214     13216     13211     13214     13217     13212     13211     13213
     13212     13211     13214     13213     13211     13214     13214     13217     13218
     13214     13217     13219     13214     13217     13220     13215     13214     13216
     13215     13214     13217     13216     13214     13217     13217     13220     13221
     13217     13220     13222     13217     13220     13223     13218     13217     13219
     13218     13217     13220     13219     13217     13220     13220     13223     13224
     13220     13223     13225     13220     13223     13226     13221     13220     13222
     13221     13220     13223     13222     13220     13223     13223     13226     13227
     13223     13226     13228     13223     13226     13229     13224     13223     13225
     13224     13223     13226     13225     13223     13226     13226     13229     13230
     13226     13229     13231     13226     13229     13232     13227     13226     13228
     13227     13226     13229     13228     13226     13229     13229     13232     13233
     13229     13232     13234     13229     13232     13235     13230     13229     13231
     13230     13229     13232     13231     13229     13232     13232     13235     13236
     13232     13235     13237     13232     13235     13238     13233     13232     13234
     13233     13232     13235     13234     13232     13235     13235     13238     13239
     13235     13238     13240     13235     13238     13241     13236     13235     13237
     13236     13235     13238     13237     13235     13238     13238     13241     13242
     13238     13241     13243     13238     13241     13244     13239     13238     13240
     13239     13238     13241     13240     13238     13241     13241     13244     13245
     13241     13244     13246     13241     13244     13247     13242     13241     13243
     13242     13241     13244     13243     13241     13244     13245     13244     13246
     13245     13244     13247     13246     13244     13247     13248     13252     13253
     13248     13252     13254     13248     13252     13257     13249     13248     13250
     13249     13248     13251     13249     13248     13252     13250     13248     13251
     13250     13248     13252     13251     13248     13252     13252     13254     13255
     13252     13254     13256     13252     13257     13258     13252     13257     13259
     13252     13257     13263     13253     13252     13254     13253     13252     13257
     13254     13252     13257     13255     13254     13256     13257     13263     13260
     13258     13257     13259     13258     13257     13263     13259     13257     13263
     13260     13264     13265     13261     13260     13262     13261     13260     13263
     13261     13260     13264     13262     13260     13263     13262     13260     13264
     13263     13260     13264     13264     13265     13266     13264     13265     13267
     13264     13265     13268     13265     13268     13269     13265     13268     13270
     13265     13268     13276     13266     13265     13267     13266     13265     13268
     13267     13265     13268     13268     13270     13271     13268     13276     13277
     13268     13276     13278     13268     13276     13279     13269     13268     13270
     13269     13268     13276     13270     13268     13276     13270     13271     13272
     13270     13271     13273     13271     13273     13274     13271     13273     13275
     13271     13273     13285     13272     13271     13273     13273     13285     13286
     13273     13285     13287     13273     13285     13288     13274     13273     13275
     13274     13273     13285     13275     13273     13285     13276     13279     13280
     13277     13276     13278     13277     13276     13279     13278     13276     13279
     13279     13280     13281     13279     13280     13282     13280     13282     13283
     13280     13282     13284     13280     13282     13332     13281     13280     13282
     13282     13332     13333     13282     13332     13334     13282     13332     13335
     13283     13282     13284     13283     13282     13332     13284     13282     13332
     13285     13288     13289     13285     13288     13290     13285     13288     13291
     13286     13285     13287     13286     13285     13288     13287     13285     13288
     13288     13291     13292     13288     13291     13293     13289     13288     13290
     13289     13288     13291     13290     13288     13291     13291     13293     13294
     13291     13293     13295     13292     13291     13293     13293     13295     13296
     13293     13295     13297     13293     13295     13298     13294     13293     13295
     13295     13298     13299     13295     13298     13300     13296     13295     13297
     13296     13295     13298     13297     13295     13298     13298     13300     13301
     13298     13300     13302     13299     13298     13300     13300     13302     13303
     13300     13302     13304     13300     13302     13305     13301     13300     13302
     13302     13305     13306     13302     13305     13307     13303     13302     13304
     13303     13302     13305     13304     13302     13305     13305     13307     13308
     13305     13307     13309     13306     13305     13307     13307     13309     13310
     13307     13309     13311     13307     13309     13312     13308     13307     13309
     13309     13312     13313     13309     13312     13314     13310     13309     13311
     13310     13309     13312     13311     13309     13312     13312     13314     13315
     13312     13314     13316     13313     13312     13314     13314     13316     13317
     13314     13316     13318     13314     13316     13319     13315     13314     13316
     13316     13319     13320     13316     13319     13321     13316     13319     13322
     13317     13316     13318     13317     13316     13319     13318     13316     13319
     13319     13322     13323     13319     13322     13324     13319     13322     13325
     13320     13319     13321     13320     13319     13322     13321     13319     13322
     13322     13325     13326     13322     13325     13327     13322     13325     13328
     13323     13322     13324     13323     13322     13325     13324     13322     13325
     13325     13328     13329     13325     13328     13330     13325     13328     13331
     13326     13325     13327     13326     13325     13328     13327     13325     13328
     13329     13328     13330     13329     13328     13331     13330     13328     13331
     13332     13335     13336     13332     13335     13337     13332     13335     13338
     13333     13332     13334     13333     13332     13335     13334     13332     13335
     13335     13338     13339     13335     13338     13340     13335     13338     13341
     13336     13335     13337     13336     13335     13338     13337     13335     13338
     13338     13341     13342     13338     13341     13343     13338     13341     13344
     13339     13338     13340     13339     13338     13341     13340     13338     13341
     13341     13344     13345     13341     13344     13346     13341     13344     13347
     13342     13341     13343     13342     13341     13344     13343     13341     13344
     13344     13347     13348     13344     13347     13349     13344     13347     13350
     13345     13344     13346     13345     13344     13347     13346     13344     13347
     13347     13350     13351     13347     13350     13352     13347     13350     13353
     13348     13347     13349     13348     13347     13350     13349     13347     13350
     13350     13353     13354     13350     13353     13355     13350     13353     13356
     13351     13350     13352     13351     13350     13353     13352     13350     13353
     13353     13356     13357     13353     13356     13358     13353     13356     13359
     13354     13353     13355     13354     13353     13356     13355     13353     13356
     13356     13359     13360     13356     13359     13361     13356     13359     13362
     13357     13356     13358     13357     13356     13359     13358     13356     13359
     13359     13362     13363     13359     13362     13364     13359     13362     13365
     13360     13359     13361     13360     13359     13362     13361     13359     13362
     13362     13365     13366     13362     13365     13367     13362     13365     13368
     13363     13362     13364     13363     13362     13365     13364     13362     13365
     13365     13368     13369     13365     13368     13370     13365     13368     13371
     13366     13365     13367     13366     13365     13368     13367     13365     13368
     13368     13371     13372     13368     13371     13373     13368     13371     13374
     13369     13368     13370     13369     13368     13371     13370     13368     13371
     13371     13374     13375     13371     13374     13376     13371     13374     13377
     13372     13371     13373     13372     13371     13374     13373     13371     13374
     13374     13377     13378     13374     13377     13379     13374     13377     13380
     13375     13374     13376     13375     13374     13377     13376     13374     13377
     13378     13377     13379     13378     13377     13380     13379     13377     13380
     13381     13385     13386     13381     13385     13387     13381     13385     13388
     13382     13381     13383     13382     13381     13384     13382     13381     13385
     13383     13381     13384     13383     13381     13385     13384     13381     13385
     13385     13388     13389     13385     13388     13390     13385     13388     13394
     13386     13385     13387     13386     13385     13388     13387     13385     13388
     13388     13394     13391     13389     13388     13390     13389     13388     13394
     13390     13388     13394     13391     13395     13396     13392     13391     13393
     13392     13391     13394     13392     13391     13395     13393     13391     13394
     13393     13391     13395     13394     13391     13395     13395     13396     13397
     13395     13396     13398     13395     13396     13399     13396     13399     13400
     13396     13399     13401     13396     13399     13407     13397     13396     13398
     13397     13396     13399     13398     13396     13399     13399     13401     13402
     13399     13407     13408     13399     13407     13409     13399     13407     13410
     13400     13399     13401     13400     13399     13407     13401     13399     13407
     13401     13402     13403     13401     13402     13404     13402     13404     13405
     13402     13404     13406     13402     13404     13416     13403     13402     13404
     13404     13416     13417     13404     13416     13418     13404     13416     13419
     13405     13404     13406     13405     13404     13416     13406     13404     13416
     13407     13410     13411     13408     13407     13409     13408     13407     13410
     13409     13407     13410     13410     13411     13412     13410     13411     13413
     13411     13413     13414     13411     13413     13415     13411     13413     13463
     13412     13411     13413     13413     13463     13464     13413     13463     13465
     13413     13463     13466     13414     13413     13415     13414     13413     13463
     13415     13413     13463     13416     13419     13420     13416     13419     13421
     13416     13419     13422     13417     13416     13418     13417     13416     13419
     13418     13416     13419     13419     13422     13423     13419     13422     13424
     13419     13422     13425     13420     13419     13421     13420     13419     13422
     13421     13419     13422     13422     13425     13426     13422     13425     13427
     13422     13425     13428     13423     13422     13424     13423     13422     13425
     13424     13422     13425     13425     13428     13429     13425     13428     13430
     13425     13428     13431     13426     13425     13427     13426     13425     13428
     13427     13425     13428     13428     13431     13432     13428     13431     13433
     13428     13431     13434     13429     13428     13430     13429     13428     13431
     13430     13428     13431     13431     13434     13435     13431     13434     13436
     13432     13431     13433     13432     13431     13434     13433     13431     13434
     13434     13436     13437     13434     13436     13438     13435     13434     13436
     13436     13438     13439     13436     13438     13440     13436     13438     13441
     13437     13436     13438     13438     13441     13442     13438     13441     13443
     13438     13441     13444     13439     13438     13440     13439     13438     13441
     13440     13438     13441     13441     13444     13445     13441     13444     13446
     13441     13444     13447     13442     13441     13443     13442     13441     13444
     13443     13441     13444     13444     13447     13448     13444     13447     13449
     13444     13447     13450     13445     13444     13446     13445     13444     13447
     13446     13444     13447     13447     13450     13451     13447     13450     13452
     13447     13450     13453     13448     13447     13449     13448     13447     13450
     13449     13447     13450     13450     13453     13454     13450     13453     13455
     13450     13453     13456     13451     13450     13452     13451     13450     13453
     13452     13450     13453     13453     13456     13457     13453     13456     13458
     13453     13456     13459     13454     13453     13455     13454     13453     13456
     13455     13453     13456     13456     13459     13460     13456     13459     13461
     13456     13459     13462     13457     13456     13458     13457     13456     13459
     13458     13456     13459     13460     13459     13461     13460     13459     13462
     13461     13459     13462     13463     13466     13467     13463     13466     13468
     13463     13466     13469     13464     13463     13465     13464     13463     13466
     13465     13463     13466     13466     13469     13470     13466     13469     13471
     13466     13469     13472     13467     13466     13468     13467     13466     13469
     13468     13466     13469     13469     13472     13473     13469     13472     13474
     13469     13472     13475     13470     13469     13471     13470     13469     13472
     13471     13469     13472     13472     13475     13476     13472     13475     13477
     13472     13475     13478     13473     13472     13474     13473     13472     13475
     13474     13472     13475     13475     13478     13479     13475     13478     13480
     13475     13478     13481     13476     13475     13477     13476     13475     13478
     13477     13475     13478     13478     13481     13482     13478     13481     13483
     13478     13481     13484     13479     13478     13480     13479     13478     13481
     13480     13478     13481     13481     13484     13485     13481     13484     13486
     13481     13484     13487     13482     13481     13483     13482     13481     13484
     13483     13481     13484     13484     13487     13488     13484     13487     13489
     13484     13487     13490     13485     13484     13486     13485     13484     13487
     13486     13484     13487     13487     13490     13491     13487     13490     13492
     13487     13490     13493     13488     13487     13489     13488     13487     13490
     13489     13487     13490     13490     13493     13494     13490     13493     13495
     13490     13493     13496     13491     13490     13492     13491     13490     13493
     13492     13490     13493     13493     13496     13497     13493     13496     13498
     13493     13496     13499     13494     13493     13495     13494     13493     13496
     13495     13493     13496     13496     13499     13500     13496     13499     13501
     13496     13499     13502     13497     13496     13498     13497     13496     13499
     13498     13496     13499     13499     13502     13503     13499     13502     13504
     13499     13502     13505     13500     13499     13501     13500     13499     13502
     13501     13499     13502     13502     13505     13506     13502     13505     13507
     13502     13505     13508     13503     13502     13504     13503     13502     13505
     13504     13502     13505     13505     13508     13509     13505     13508     13510
     13505     13508     13511     13506     13505     13507     13506     13505     13508
     13507     13505     13508     13509     13508     13510     13509     13508     13511
     13510     13508     13511     13512     13513     13514     13512     13513     13515
     13512     13513     13516     13512     13517     13518     13512     13517     13519
     13512     13517     13520     13512     13521     13522     13512     13521     13523
     13512     13521     13524     13512     13525     13526     13512     13525     13527
     13512     13525     13528     13513     13512     13517     13513     13512     13521
     13513     13512     13525     13514     13513     13515     13514     13513     13516
     13515     13513     13516     13517     13512     13521     13517     13512     13525
     13518     13517     13519     13518     13517     13520     13519     13517     13520
     13521     13512     13525     13522     13521     13523     13522     13521     13524
     13523     13521     13524     13525     13528     13529     13525     13528     13530
     13525     13528     13535     13526     13525     13527     13526     13525     13528
     13527     13525     13528     13528     13535     13531     13529     13528     13530
     13529     13528     13535     13530     13528     13535     13531     13534     13536
     13532     13531     13533     13532     13531     13534     13532     13531     13535
     13533     13531     13534     13533     13531     13535     13534     13531     13535
     13534     13536     13537     13534     13536     13538     13534     13536     13541
     13536     13541     13539     13536     13541     13542     13536     13541     13543
     13537     13536     13538     13537     13536     13541     13538     13536     13541
     13539     13541     13542     13539     13541     13543     13539     13591     13592
     13539     13591     13593     13540     13539     13541     13540     13539     13591
     13541     13539     13591     13541     13543     13544     13541     13543     13545
     13541     13543     13547     13542     13541     13543     13543     13545     13546
     13543     13547     13548     13543     13547     13549     13544     13543     13545
     13544     13543     13547     13545     13543     13547     13547     13549     13550
     13547     13549     13551     13548     13547     13549     13549     13551     13552
     13549     13551     13553     13549     13551     13554     13550     13549     13551
     13551     13554     13555     13551     13554     13556     13551     13554     13557
     13552     13551     13553     13552     13551     13554     13553     13551     13554
     13554     13557     13558     13554     13557     13559     13554     13557     13560
     13555     13554     13556     13555     13554     13557     13556     13554     13557
     13557     13560     13561     13557     13560     13562     13557     13560     13563
     13558     13557     13559     13558     13557     13560     13559     13557     13560
     13560     13563     13564     13560     13563     13565     13560     13563     13566
     13561     13560     13562     13561     13560     13563     13562     13560     13563
     13563     13566     13567     13563     13566     13568     13563     13566     13569
     13564     13563     13565     13564     13563     13566     13565     13563     13566
     13566     13569     13570     13566     13569     13571     13566     13569     13572
     13567     13566     13568     13567     13566     13569     13568     13566     13569
     13569     13572     13573     13569     13572     13574     13569     13572     13575
     13570     13569     13571     13570     13569     13572     13571     13569     13572
     13572     13575     13576     13572     13575     13577     13572     13575     13578
     13573     13572     13574     13573     13572     13575     13574     13572     13575
     13575     13578     13579     13575     13578     13580     13575     13578     13581
     13576     13575     13577     13576     13575     13578     13577     13575     13578
     13578     13581     13582     13578     13581     13583     13578     13581     13584
     13579     13578     13580     13579     13578     13581     13580     13578     13581
     13581     13584     13585     13581     13584     13586     13581     13584     13587
     13582     13581     13583     13582     13581     13584     13583     13581     13584
     13584     13587     13588     13584     13587     13589     13584     13587     13590
     13585     13584     13586     13585     13584     13587     13586     13584     13587
     13588     13587     13589     13588     13587     13590     13589     13587     13590
     13591     13593     13594     13591     13593     13595     13591     13593     13596
     13592     13591     13593     13593     13596     13597     13593     13596     13598
     13593     13596     13599     13594     13593     13595     13594     13593     13596
     13595     13593     13596     13596     13599     13600     13596     13599     13601
     13596     13599     13602     13597     13596     13598     13597     13596     13599
     13598     13596     13599     13599     13602     13603     13599     13602     13604
     13599     13602     13605     13600     13599     13601     13600     13599     13602
     13601     13599     13602     13602     13605     13606     13602     13605     13607
     13602     13605     13608     13603     13602     13604     13603     13602     13605
     13604     13602     13605     13605     13608     13609     13605     13608     13610
     13605     13608     13611     13606     13605     13607     13606     13605     13608
     13607     13605     13608     13608     13611     13612     13608     13611     13613
     13608     13611     13614     13609     13608     13610     13609     13608     13611
     13610     13608     13611     13611     13614     13615     13611     13614     13616
     13612     13611     13613     13612     13611     13614     13613     13611     13614
     13614     13616     13617     13614     13616     13618     13615     13614     13616
     13616     13618     13619     13616     13618     13620     13616     13618     13621
     13617     13616     13618     13618     13621     13622     13618     13621     13623
     13618     13621     13624     13619     13618     13620     13619     13618     13621
     13620     13618     13621     13621     13624     13625     13621     13624     13626
     13621     13624     13627     13622     13621     13623     13622     13621     13624
     13623     13621     13624     13624     13627     13628     13624     13627     13629
     13624     13627     13630     13625     13624     13626     13625     13624     13627
     13626     13624     13627     13627     13630     13631     13627     13630     13632
     13627     13630     13633     13628     13627     13629     13628     13627     13630
     13629     13627     13630     13630     13633     13634     13630     13633     13635
     13630     13633     13636     13631     13630     13632     13631     13630     13633
     13632     13630     13633     13633     13636     13637     13633     13636     13638
     13633     13636     13639     13634     13633     13635     13634     13633     13636
     13635     13633     13636     13636     13639     13640     13636     13639     13641
     13636     13639     13642     13637     13636     13638     13637     13636     13639
     13638     13636     13639     13640     13639     13641     13640     13639     13642
     13641     13639     13642     13643     13644     13645     13643     13644     13646
     13643     13644     13647     13643     13648     13649     13643     13648     13650
     13643     13648     13651     13643     13652     13653     13643     13652     13654
     13643     13652     13655     13643     13656     13657     13643     13656     13658
     13643     13656     13659     13644     13643     13648     13644     13643     13652
     13644     13643     13656     13645     13644     13646     13645     13644     13647
     13646     13644     13647     13648     13643     13652     13648     13643     13656
     13649     13648     13650     13649     13648     13651     13650     13648     13651
     13652     13643     13656     13653     13652     13654     13653     13652     13655
     13654     13652     13655     13656     13659     13660     13656     13659     13661
     13656     13659     13666     13657     13656     13658     13657     13656     13659
     13658     13656     13659     13659     13666     13662     13660     13659     13661
     13660     13659     13666     13661     13659     13666     13662     13665     13667
     13663     13662     13664     13663     13662     13665     13663     13662     13666
     13664     13662     13665     13664     13662     13666     13665     13662     13666
     13665     13667     13668     13665     13667     13669     13665     13667     13672
     13667     13672     13670     13667     13672     13673     13667     13672     13674
     13668     13667     13669     13668     13667     13672     13669     13667     13672
     13670     13672     13673     13670     13672     13674     13670     13722     13723
     13670     13722     13724     13671     13670     13672     13671     13670     13722
     13672     13670     13722     13672     13674     13675     13672     13674     13676
     13672     13674     13678     13673     13672     13674     13674     13676     13677
     13674     13678     13679     13674     13678     13680     13675     13674     13676
     13675     13674     13678     13676     13674     13678     13678     13680     13681
     13678     13680     13682     13679     13678     13680     13680     13682     13683
     13680     13682     13684     13680     13682     13685     13681     13680     13682
     13682     13685     13686     13682     13685     13687     13682     13685     13688
     13683     13682     13684     13683     13682     13685     13684     13682     13685
     13685     13688     13689     13685     13688     13690     13685     13688     13691
     13686     13685     13687     13686     13685     13688     13687     13685     13688
     13688     13691     13692     13688     13691     13693     13688     13691     13694
     13689     13688     13690     13689     13688     13691     13690     13688     13691
     13691     13694     13695     13691     13694     13696     13691     13694     13697
     13692     13691     13693     13692     13691     13694     13693     13691     13694
     13694     13697     13698     13694     13697     13699     13694     13697     13700
     13695     13694     13696     13695     13694     13697     13696     13694     13697
     13697     13700     13701     13697     13700     13702     13697     13700     13703
     13698     13697     13699     13698     13697     13700     13699     13697     13700
     13700     13703     13704     13700     13703     13705     13700     13703     13706
     13701     13700     13702     13701     13700     13703     13702     13700     13703
     13703     13706     13707     13703     13706     13708     13703     13706     13709
     13704     13703     13705     13704     13703     13706     13705     13703     13706
     13706     13709     13710     13706     13709     13711     13706     13709     13712
     13707     13706     13708     13707     13706     13709     13708     13706     13709
     13709     13712     13713     13709     13712     13714     13709     13712     13715
     13710     13709     13711     13710     13709     13712     13711     13709     13712
     13712     13715     13716     13712     13715     13717     13712     13715     13718
     13713     13712     13714     13713     13712     13715     13714     13712     13715
     13715     13718     13719     13715     13718     13720     13715     13718     13721
     13716     13715     13717     13716     13715     13718     13717     13715     13718
     13719     13718     13720     13719     13718     13721     13720     13718     13721
     13722     13724     13725     13722     13724     13726     13722     13724     13727
     13723     13722     13724     13724     13727     13728     13724     13727     13729
     13724     13727     13730     13725     13724     13726     13725     13724     13727
     13726     13724     13727     13727     13730     13731     13727     13730     13732
     13727     13730     13733     13728     13727     13729     13728     13727     13730
     13729     13727     13730     13730     13733     13734     13730     13733     13735
     13730     13733     13736     13731     13730     13732     13731     13730     13733
     13732     13730     13733     13733     13736     13737     13733     13736     13738
     13733     13736     13739     13734     13733     13735     13734     13733     13736
     13735     13733     13736     13736     13739     13740     13736     13739     13741
     13736     13739     13742     13737     13736     13738     13737     13736     13739
     13738     13736     13739     13739     13742     13743     13739     13742     13744
     13739     13742     13745     13740     13739     13741     13740     13739     13742
     13741     13739     13742     13742     13745     13746     13742     13745     13747
     13743     13742     13744     13743     13742     13745     13744     13742     13745
     13745     13747     13748     13745     13747     13749     13746     13745     13747
     13747     13749     13750     13747     13749     13751     13747     13749     13752
     13748     13747     13749     13749     13752     13753     13749     13752     13754
     13749     13752     13755     13750     13749     13751     13750     13749     13752
     13751     13749     13752     13752     13755     13756     13752     13755     13757
     13752     13755     13758     13753     13752     13754     13753     13752     13755
     13754     13752     13755     13755     13758     13759     13755     13758     13760
     13755     13758     13761     13756     13755     13757     13756     13755     13758
     13757     13755     13758     13758     13761     13762     13758     13761     13763
     13758     13761     13764     13759     13758     13760     13759     13758     13761
     13760     13758     13761     13761     13764     13765     13761     13764     13766
     13761     13764     13767     13762     13761     13763     13762     13761     13764
     13763     13761     13764     13764     13767     13768     13764     13767     13769
     13764     13767     13770     13765     13764     13766     13765     13764     13767
     13766     13764     13767     13767     13770     13771     13767     13770     13772
     13767     13770     13773     13768     13767     13769     13768     13767     13770
     13769     13767     13770     13771     13770     13772     13771     13770     13773
     13772     13770     13773     13774     13778     13779     13774     13778     13780
     13774     13778     13783     13775     13774     13776     13775     13774     13777
     13775     13774     13778     13776     13774     13777     13776     13774     13778
     13777     13774     13778     13778     13780     13781     13778     13780     13782
     13778     13783     13784     13778     13783     13785     13778     13783     13789
     13779     13778     13780     13779     13778     13783     13780     13778     13783
     13781     13780     13782     13783     13789     13786     13784     13783     13785
     13784     13783     13789     13785     13783     13789     13786     13790     13791
     13787     13786     13788     13787     13786     13789     13787     13786     13790
     13788     13786     13789     13788     13786     13790     13789     13786     13790
     13790     13791     13792     13790     13791     13793     13790     13791     13794
     13791     13794     13795     13791     13794     13796     13791     13794     13802
     13792     13791     13793     13792     13791     13794     13793     13791     13794
     13794     13796     13797     13794     13802     13803     13794     13802     13804
     13794     13802     13805     13795     13794     13796     13795     13794     13802
     13796     13794     13802     13796     13797     13798     13796     13797     13799
     13797     13799     13800     13797     13799     13801     13797     13799     13811
     13798     13797     13799     13799     13811     13812     13799     13811     13813
     13799     13811     13814     13800     13799     13801     13800     13799     13811
     13801     13799     13811     13802     13805     13806     13803     13802     13804
     13803     13802     13805     13804     13802     13805     13805     13806     13807
     13805     13806     13808     13806     13808     13809     13806     13808     13810
     13806     13808     13858     13807     13806     13808     13808     13858     13859
     13808     13858     13860     13808     13858     13861     13809     13808     13810
     13809     13808     13858     13810     13808     13858     13811     13814     13815
     13811     13814     13816     13811     13814     13817     13812     13811     13813
     13812     13811     13814     13813     13811     13814     13814     13817     13818
     13814     13817     13819     13815     13814     13816     13815     13814     13817
     13816     13814     13817     13817     13819     13820     13817     13819     13821
     13818     13817     13819     13819     13821     13822     13819     13821     13823
     13819     13821     13824     13820     13819     13821     13821     13824     13825
     13821     13824     13826     13822     13821     13823     13822     13821     13824
     13823     13821     13824     13824     13826     13827     13824     13826     13828
     13825     13824     13826     13826     13828     13829     13826     13828     13830
     13826     13828     13831     13827     13826     13828     13828     13831     13832
     13828     13831     13833     13829     13828     13830     13829     13828     13831
     13830     13828     13831     13831     13833     13834     13831     13833     13835
     13832     13831     13833     13833     13835     13836     13833     13835     13837
     13833     13835     13838     13834     13833     13835     13835     13838     13839
     13835     13838     13840     13836     13835     13837     13836     13835     13838
     13837     13835     13838     13838     13840     13841     13838     13840     13842
     13839     13838     13840     13840     13842     13843     13840     13842     13844
     13840     13842     13845     13841     13840     13842     13842     13845     13846
     13842     13845     13847     13842     13845     13848     13843     13842     13844
     13843     13842     13845     13844     13842     13845     13845     13848     13849
     13845     13848     13850     13845     13848     13851     13846     13845     13847
     13846     13845     13848     13847     13845     13848     13848     13851     13852
     13848     13851     13853     13848     13851     13854     13849     13848     13850
     13849     13848     13851     13850     13848     13851     13851     13854     13855
     13851     13854     13856     13851     13854     13857     13852     13851     13853
     13852     13851     13854     13853     13851     13854     13855     13854     13856
     13855     13854     13857     13856     13854     13857     13858     13861     13862
     13858     13861     13863     13858     13861     13864     13859     13858     13860
     13859     13858     13861     13860     13858     13861     13861     13864     13865
     13861     13864     13866     13861     13864     13867     13862     13861     13863
     13862     13861     13864     13863     13861     13864     13864     13867     13868
     13864     13867     13869     13864     13867     13870     13865     13864     13866
     13865     13864     13867     13866     13864     13867     13867     13870     13871
     13867     13870     13872     13867     13870     13873     13868     13867     13869
     13868     13867     13870     13869     13867     13870     13870     13873     13874
     13870     13873     13875     13870     13873     13876     13871     13870     13872
     13871     13870     13873     13872     13870     13873     13873     13876     13877
     13873     13876     13878     13873     13876     13879     13874     13873     13875
     13874     13873     13876     13875     13873     13876     13876     13879     13880
     13876     13879     13881     13876     13879     13882     13877     13876     13878
     13877     13876     13879     13878     13876     13879     13879     13882     13883
     13879     13882     13884     13879     13882     13885     13880     13879     13881
     13880     13879     13882     13881     13879     13882     13882     13885     13886
     13882     13885     13887     13882     13885     13888     13883     13882     13884
     13883     13882     13885     13884     13882     13885     13885     13888     13889
     13885     13888     13890     13885     13888     13891     13886     13885     13887
     13886     13885     13888     13887     13885     13888     13888     13891     13892
     13888     13891     13893     13888     13891     13894     13889     13888     13890
     13889     13888     13891     13890     13888     13891     13891     13894     13895
     13891     13894     13896     13891     13894     13897     13892     13891     13893
     13892     13891     13894     13893     13891     13894     13894     13897     13898
     13894     13897     13899     13894     13897     13900     13895     13894     13896
     13895     13894     13897     13896     13894     13897     13897     13900     13901
     13897     13900     13902     13897     13900     13903     13898     13897     13899
     13898     13897     13900     13899     13897     13900     13900     13903     13904
     13900     13903     13905     13900     13903     13906     13901     13900     13902
     13901     13900     13903     13902     13900     13903     13904     13903     13905
     13904     13903     13906     13905     13903     13906     13907     13909     13910
     13907     13911     13912     13907     13911     13913     13907     13911     13914
     13907     13953     13950     13907     13953     13954     13907     13953     13955
     13908     13907     13909     13908     13907     13911     13908     13907     13953
     13909     13907     13911     13909     13907     13953     13911     13907     13953
     13911     13914     13915     13911     13914     13945     13912     13911     13913
     13912     13911     13914     13913     13911     13914     13914     13915     13916
     13914     13915     13917     13914     13945     13943     13914     13945     13946
     13914     13945     13950     13915     13914     13945     13915     13917     13918
     13915     13917     13919     13915     13917     13920     13916     13915     13917
     13917     13920     13921     13917     13920     13922     13917     13920     13943
     13918     13917     13919     13918     13917     13920     13919     13917     13920
     13920     13922     13923     13920     13922     13924     13920     13922     13932
     13920     13943     13940     13920     13943     13944     13920     13943     13945
     13921     13920     13922     13921     13920     13943     13922     13920     13943
     13922     13924     13925     13922     13924     13926     13922     13924     13927
     13922     13932     13930     13922     13932     13933     13922     13932     13937
     13923     13922     13924     13923     13922     13932     13924     13922     13932
     13924     13927     13928     13924     13927     13929     13924     13927     13930
     13925     13924     13926     13925     13924     13927     13926     13924     13927
     13927     13930     13931     13927     13930     13932     13927     13930     13956
     13928     13927     13929     13928     13927     13930     13929     13927     13930
     13930     13932     13933     13930     13932     13937     13930     13956     13957
     13930     13956     13958     13930     13956     13962     13931     13930     13932
     13931     13930     13956     13932     13930     13956     13932     13933     13934
     13932     13933     13935     13932     13933     13936     13932     13937     13938
     13932     13937     13939     13932     13937     13940     13933     13932     13937
     13934     13933     13935     13934     13933     13936     13935     13933     13936
     13937     13940     13941     13937     13940     13942     13937     13940     13943
     13938     13937     13939     13938     13937     13940     13939     13937     13940
     13940     13943     13944     13940     13943     13945     13941     13940     13942
     13941     13940     13943     13942     13940     13943     13943     13945     13946
     13943     13945     13950     13944     13943     13945     13945     13946     13947
     13945     13946     13948     13945     13946     13949     13945     13950     13951
     13945     13950     13952     13945     13950     13953     13946     13945     13950
     13947     13946     13948     13947     13946     13949     13948     13946     13949
     13950     13953     13954     13950     13953     13955     13951     13950     13952
     13951     13950     13953     13952     13950     13953     13954     13953     13955
     13956     13958     13959     13956     13958     13960     13956     13958     13961
     13956     13962     13963     13956     13962     13964     13956     13962     13965
     13957     13956     13958     13957     13956     13962     13958     13956     13962
     13959     13958     13960     13959     13958     13961     13960     13958     13961
     13962     13965     13966     13962     13965     13967     13962     13965     13968
     13963     13962     13964     13963     13962     13965     13964     13962     13965
     13965     13968     13969     13965     13968     13970     13965     13968     13971
     13966     13965     13967     13966     13965     13968     13967     13965     13968
     13968     13971     13972     13968     13971     13973     13968     13971     13977
     13969     13968     13970     13969     13968     13971     13970     13968     13971
     13971     13973     13974     13971     13973     13975     13971     13973     13976
     13971     13977     13978     13971     13977     13979     13971     13977     13980
     13972     13971     13973     13972     13971     13977     13973     13971     13977
     13974     13973     13975     13974     13973     13976     13975     13973     13976
     13978     13977     13979     13978     13977     13980     13979     13977     13980
     13981     13982     13983     13981     13982     13984     13981     13982     13985
     13981     13986     13987     13981     13986     13988     13981     13986     13989
     13981     13990     13991     13981     13990     13992     13981     13990     13993
     13981     13994     13995     13981     13994     13996     13981     13994     13997
     13982     13981     13986     13982     13981     13990     13982     13981     13994
     13983     13982     13984     13983     13982     13985     13984     13982     13985
     13986     13981     13990     13986     13981     13994     13987     13986     13988
     13987     13986     13989     13988     13986     13989     13990     13981     13994
     13991     13990     13992     13991     13990     13993     13992     13990     13993
     13994     13997     13998     13994     13997     13999     13994     13997     14004
     13995     13994     13996     13995     13994     13997     13996     13994     13997
     13997     14004     14000     13998     13997     13999     13998     13997     14004
     13999     13997     14004     14000     14003     14005     14001     14000     14002
     14001     14000     14003     14001     14000     14004     14002     14000     14003
     14002     14000     14004     14003     14000     14004     14003     14005     14006
     14003     14005     14007     14003     14005     14010     14005     14010     14008
     14005     14010     14011     14005     14010     14012     14006     14005     14007
     14006     14005     14010     14007     14005     14010     14008     14010     14011
     14008     14010     14012     14008     14060     14061     14008     14060     14062
     14009     14008     14010     14009     14008     14060     14010     14008     14060
     14010     14012     14013     14010     14012     14014     14010     14012     14016
     14011     14010     14012     14012     14014     14015     14012     14016     14017
     14012     14016     14018     14013     14012     14014     14013     14012     14016
     14014     14012     14016     14016     14018     14019     14016     14018     14020
     14017     14016     14018     14018     14020     14021     14018     14020     14022
     14018     14020     14023     14019     14018     14020     14020     14023     14024
     14020     14023     14025     14020     14023     14026     14021     14020     14022
     14021     14020     14023     14022     14020     14023     14023     14026     14027
     14023     14026     14028     14023     14026     14029     14024     14023     14025
     14024     14023     14026     14025     14023     14026     14026     14029     14030
     14026     14029     14031     14026     14029     14032     14027     14026     14028
     14027     14026     14029     14028     14026     14029     14029     14032     14033
     14029     14032     14034     14029     14032     14035     14030     14029     14031
     14030     14029     14032     14031     14029     14032     14032     14035     14036
     14032     14035     14037     14032     14035     14038     14033     14032     14034
     14033     14032     14035     14034     14032     14035     14035     14038     14039
     14035     14038     14040     14035     14038     14041     14036     14035     14037
     14036     14035     14038     14037     14035     14038     14038     14041     14042
     14038     14041     14043     14038     14041     14044     14039     14038     14040
     14039     14038     14041     14040     14038     14041     14041     14044     14045
     14041     14044     14046     14041     14044     14047     14042     14041     14043
     14042     14041     14044     14043     14041     14044     14044     14047     14048
     14044     14047     14049     14044     14047     14050     14045     14044     14046
     14045     14044     14047     14046     14044     14047     14047     14050     14051
     14047     14050     14052     14047     14050     14053     14048     14047     14049
     14048     14047     14050     14049     14047     14050     14050     14053     14054
     14050     14053     14055     14050     14053     14056     14051     14050     14052
     14051     14050     14053     14052     14050     14053     14053     14056     14057
     14053     14056     14058     14053     14056     14059     14054     14053     14055
     14054     14053     14056     14055     14053     14056     14057     14056     14058
     14057     14056     14059     14058     14056     14059     14060     14062     14063
     14060     14062     14064     14060     14062     14065     14061     14060     14062
     14062     14065     14066     14062     14065     14067     14062     14065     14068
     14063     14062     14064     14063     14062     14065     14064     14062     14065
     14065     14068     14069     14065     14068     14070     14065     14068     14071
     14066     14065     14067     14066     14065     14068     14067     14065     14068
     14068     14071     14072     14068     14071     14073     14068     14071     14074
     14069     14068     14070     14069     14068     14071     14070     14068     14071
     14071     14074     14075     14071     14074     14076     14071     14074     14077
     14072     14071     14073     14072     14071     14074     14073     14071     14074
     14074     14077     14078     14074     14077     14079     14074     14077     14080
     14075     14074     14076     14075     14074     14077     14076     14074     14077
     14077     14080     14081     14077     14080     14082     14077     14080     14083
     14078     14077     14079     14078     14077     14080     14079     14077     14080
     14080     14083     14084     14080     14083     14085     14081     14080     14082
     14081     14080     14083     14082     14080     14083     14083     14085     14086
     14083     14085     14087     14084     14083     14085     14085     14087     14088
     14085     14087     14089     14085     14087     14090     14086     14085     14087
     14087     14090     14091     14087     14090     14092     14087     14090     14093
     14088     14087     14089     14088     14087     14090     14089     14087     14090
     14090     14093     14094     14090     14093     14095     14090     14093     14096
     14091     14090     14092     14091     14090     14093     14092     14090     14093
     14093     14096     14097     14093     14096     14098     14093     14096     14099
     14094     14093     14095     14094     14093     14096     14095     14093     14096
     14096     14099     14100     14096     14099     14101     14096     14099     14102
     14097     14096     14098     14097     14096     14099     14098     14096     14099
     14099     14102     14103     14099     14102     14104     14099     14102     14105
     14100     14099     14101     14100     14099     14102     14101     14099     14102
     14102     14105     14106     14102     14105     14107     14102     14105     14108
     14103     14102     14104     14103     14102     14105     14104     14102     14105
     14105     14108     14109     14105     14108     14110     14105     14108     14111
     14106     14105     14107     14106     14105     14108     14107     14105     14108
     14109     14108     14110     14109     14108     14111     14110     14108     14111
     14112     14113     14114     14112     14113     14115     14112     14113     14116
     14112     14117     14118     14112     14117     14119     14112     14117     14120
     14112     14121     14122     14112     14121     14123     14112     14121     14124
     14112     14125     14126     14112     14125     14127     14112     14125     14128
     14113     14112     14117     14113     14112     14121     14113     14112     14125
     14114     14113     14115     14114     14113     14116     14115     14113     14116
     14117     14112     14121     14117     14112     14125     14118     14117     14119
     14118     14117     14120     14119     14117     14120     14121     14112     14125
     14122     14121     14123     14122     14121     14124     14123     14121     14124
     14125     14128     14129     14125     14128     14130     14125     14128     14135
     14126     14125     14127     14126     14125     14128     14127     14125     14128
     14128     14135     14131     14129     14128     14130     14129     14128     14135
     14130     14128     14135     14131     14134     14136     14132     14131     14133
     14132     14131     14134     14132     14131     14135     14133     14131     14134
     14133     14131     14135     14134     14131     14135     14134     14136     14137
     14134     14136     14138     14134     14136     14141     14136     14141     14139
     14136     14141     14142     14136     14141     14143     14137     14136     14138
     14137     14136     14141     14138     14136     14141     14139     14141     14142
     14139     14141     14143     14139     14191     14192     14139     14191     14193
     14140     14139     14141     14140     14139     14191     14141     14139     14191
     14141     14143     14144     14141     14143     14145     14141     14143     14147
     14142     14141     14143     14143     14145     14146     14143     14147     14148
     14143     14147     14149     14144     14143     14145     14144     14143     14147
     14145     14143     14147     14147     14149     14150     14147     14149     14151
     14148     14147     14149     14149     14151     14152     14149     14151     14153
     14149     14151     14154     14150     14149     14151     14151     14154     14155
     14151     14154     14156     14151     14154     14157     14152     14151     14153
     14152     14151     14154     14153     14151     14154     14154     14157     14158
     14154     14157     14159     14154     14157     14160     14155     14154     14156
     14155     14154     14157     14156     14154     14157     14157     14160     14161
     14157     14160     14162     14157     14160     14163     14158     14157     14159
     14158     14157     14160     14159     14157     14160     14160     14163     14164
     14160     14163     14165     14160     14163     14166     14161     14160     14162
     14161     14160     14163     14162     14160     14163     14163     14166     14167
     14163     14166     14168     14163     14166     14169     14164     14163     14165
     14164     14163     14166     14165     14163     14166     14166     14169     14170
     14166     14169     14171     14166     14169     14172     14167     14166     14168
     14167     14166     14169     14168     14166     14169     14169     14172     14173
     14169     14172     14174     14169     14172     14175     14170     14169     14171
     14170     14169     14172     14171     14169     14172     14172     14175     14176
     14172     14175     14177     14172     14175     14178     14173     14172     14174
     14173     14172     14175     14174     14172     14175     14175     14178     14179
     14175     14178     14180     14175     14178     14181     14176     14175     14177
     14176     14175     14178     14177     14175     14178     14178     14181     14182
     14178     14181     14183     14178     14181     14184     14179     14178     14180
     14179     14178     14181     14180     14178     14181     14181     14184     14185
     14181     14184     14186     14181     14184     14187     14182     14181     14183
     14182     14181     14184     14183     14181     14184     14184     14187     14188
     14184     14187     14189     14184     14187     14190     14185     14184     14186
     14185     14184     14187     14186     14184     14187     14188     14187     14189
     14188     14187     14190     14189     14187     14190     14191     14193     14194
     14191     14193     14195     14191     14193     14196     14192     14191     14193
     14193     14196     14197     14193     14196     14198     14193     14196     14199
     14194     14193     14195     14194     14193     14196     14195     14193     14196
     14196     14199     14200     14196     14199     14201     14196     14199     14202
     14197     14196     14198     14197     14196     14199     14198     14196     14199
     14199     14202     14203     14199     14202     14204     14199     14202     14205
     14200     14199     14201     14200     14199     14202     14201     14199     14202
     14202     14205     14206     14202     14205     14207     14202     14205     14208
     14203     14202     14204     14203     14202     14205     14204     14202     14205
     14205     14208     14209     14205     14208     14210     14205     14208     14211
     14206     14205     14207     14206     14205     14208     14207     14205     14208
     14208     14211     14212     14208     14211     14213     14208     14211     14214
     14209     14208     14210     14209     14208     14211     14210     14208     14211
     14211     14214     14215     14211     14214     14216     14212     14211     14213
     14212     14211     14214     14213     14211     14214     14214     14216     14217
     14214     14216     14218     14215     14214     14216     14216     14218     14219
     14216     14218     14220     14216     14218     14221     14217     14216     14218
     14218     14221     14222     14218     14221     14223     14218     14221     14224
     14219     14218     14220     14219     14218     14221     14220     14218     14221
     14221     14224     14225     14221     14224     14226     14221     14224     14227
     14222     14221     14223     14222     14221     14224     14223     14221     14224
     14224     14227     14228     14224     14227     14229     14224     14227     14230
     14225     14224     14226     14225     14224     14227     14226     14224     14227
     14227     14230     14231     14227     14230     14232     14227     14230     14233
     14228     14227     14229     14228     14227     14230     14229     14227     14230
     14230     14233     14234     14230     14233     14235     14230     14233     14236
     14231     14230     14232     14231     14230     14233     14232     14230     14233
     14233     14236     14237     14233     14236     14238     14233     14236     14239
     14234     14233     14235     14234     14233     14236     14235     14233     14236
     14236     14239     14240     14236     14239     14241     14236     14239     14242
     14237     14236     14238     14237     14236     14239     14238     14236     14239
     14240     14239     14241     14240     14239     14242     14241     14239     14242
     14243     14247     14248     14243     14247     14249     14243     14247     14250
     14244     14243     14245     14244     14243     14246     14244     14243     14247
     14245     14243     14246     14245     14243     14247     14246     14243     14247
     14247     14250     14251     14247     14250     14252     14247     14250     14256
     14248     14247     14249     14248     14247     14250     14249     14247     14250
     14250     14256     14253     14251     14250     14252     14251     14250     14256
     14252     14250     14256     14253     14257     14258     14254     14253     14255
     14254     14253     14256     14254     14253     14257     14255     14253     14256
     14255     14253     14257     14256     14253     14257     14257     14258     14259
     14257     14258     14260     14257     14258     14261     14258     14261     14262
     14258     14261     14263     14258     14261     14269     14259     14258     14260
     14259     14258     14261     14260     14258     14261     14261     14263     14264
     14261     14269     14270     14261     14269     14271     14261     14269     14272
     14262     14261     14263     14262     14261     14269     14263     14261     14269
     14263     14264     14265     14263     14264     14266     14264     14266     14267
     14264     14266     14268     14264     14266     14278     14265     14264     14266
     14266     14278     14279     14266     14278     14280     14266     14278     14281
     14267     14266     14268     14267     14266     14278     14268     14266     14278
     14269     14272     14273     14270     14269     14271     14270     14269     14272
     14271     14269     14272     14272     14273     14274     14272     14273     14275
     14273     14275     14276     14273     14275     14277     14273     14275     14325
     14274     14273     14275     14275     14325     14326     14275     14325     14327
     14275     14325     14328     14276     14275     14277     14276     14275     14325
     14277     14275     14325     14278     14281     14282     14278     14281     14283
     14278     14281     14284     14279     14278     14280     14279     14278     14281
     14280     14278     14281     14281     14284     14285     14281     14284     14286
     14282     14281     14283     14282     14281     14284     14283     14281     14284
     14284     14286     14287     14284     14286     14288     14285     14284     14286
     14286     14288     14289     14286     14288     14290     14286     14288     14291
     14287     14286     14288     14288     14291     14292     14288     14291     14293
     14289     14288     14290     14289     14288     14291     14290     14288     14291
     14291     14293     14294     14291     14293     14295     14292     14291     14293
     14293     14295     14296     14293     14295     14297     14293     14295     14298
     14294     14293     14295     14295     14298     14299     14295     14298     14300
     14296     14295     14297     14296     14295     14298     14297     14295     14298
     14298     14300     14301     14298     14300     14302     14299     14298     14300
     14300     14302     14303     14300     14302     14304     14300     14302     14305
     14301     14300     14302     14302     14305     14306     14302     14305     14307
     14303     14302     14304     14303     14302     14305     14304     14302     14305
     14305     14307     14308     14305     14307     14309     14306     14305     14307
     14307     14309     14310     14307     14309     14311     14307     14309     14312
     14308     14307     14309     14309     14312     14313     14309     14312     14314
     14309     14312     14315     14310     14309     14311     14310     14309     14312
     14311     14309     14312     14312     14315     14316     14312     14315     14317
     14312     14315     14318     14313     14312     14314     14313     14312     14315
     14314     14312     14315     14315     14318     14319     14315     14318     14320
     14315     14318     14321     14316     14315     14317     14316     14315     14318
     14317     14315     14318     14318     14321     14322     14318     14321     14323
     14318     14321     14324     14319     14318     14320     14319     14318     14321
     14320     14318     14321     14322     14321     14323     14322     14321     14324
     14323     14321     14324     14325     14328     14329     14325     14328     14330
     14325     14328     14331     14326     14325     14327     14326     14325     14328
     14327     14325     14328     14328     14331     14332     14328     14331     14333
     14328     14331     14334     14329     14328     14330     14329     14328     14331
     14330     14328     14331     14331     14334     14335     14331     14334     14336
     14331     14334     14337     14332     14331     14333     14332     14331     14334
     14333     14331     14334     14334     14337     14338     14334     14337     14339
     14334     14337     14340     14335     14334     14336     14335     14334     14337
     14336     14334     14337     14337     14340     14341     14337     14340     14342
     14337     14340     14343     14338     14337     14339     14338     14337     14340
     14339     14337     14340     14340     14343     14344     14340     14343     14345
     14340     14343     14346     14341     14340     14342     14341     14340     14343
     14342     14340     14343     14343     14346     14347     14343     14346     14348
     14343     14346     14349     14344     14343     14345     14344     14343     14346
     14345     14343     14346     14346     14349     14350     14346     14349     14351
     14346     14349     14352     14347     14346     14348     14347     14346     14349
     14348     14346     14349     14349     14352     14353     14349     14352     14354
     14349     14352     14355     14350     14349     14351     14350     14349     14352
     14351     14349     14352     14352     14355     14356     14352     14355     14357
     14352     14355     14358     14353     14352     14354     14353     14352     14355
     14354     14352     14355     14355     14358     14359     14355     14358     14360
     14355     14358     14361     14356     14355     14357     14356     14355     14358
     14357     14355     14358     14358     14361     14362     14358     14361     14363
     14358     14361     14364     14359     14358     14360     14359     14358     14361
     14360     14358     14361     14361     14364     14365     14361     14364     14366
     14361     14364     14367     14362     14361     14363     14362     14361     14364
     14363     14361     14364     14364     14367     14368     14364     14367     14369
     14364     14367     14370     14365     14364     14366     14365     14364     14367
     14366     14364     14367     14367     14370     14371     14367     14370     14372
     14367     14370     14373     14368     14367     14369     14368     14367     14370
     14369     14367     14370     14371     14370     14372     14371     14370     14373
     14372     14370     14373     14374     14375     14376     14374     14375     14377
     14374     14375     14390     14374     14378     14379     14374     14378     14380
     14374     14378     14381     14374     14382     14383     14374     14382     14384
     14374     14382     14385     14374     14386     14387     14374     14386     14388
     14374     14386     14389     14375     14374     14378     14375     14374     14382
     14375     14374     14386     14375     14390     14391     14375     14390     14392
     14375     14390     14396     14376     14375     14377     14376     14375     14390
     14377     14375     14390     14378     14374     14382     14378     14374     14386
     14379     14378     14380     14379     14378     14381     14380     14378     14381
     14382     14374     14386     14383     14382     14384     14383     14382     14385
     14384     14382     14385     14387     14386     14388     14387     14386     14389
     14388     14386     14389     14390     14396     14393     14391     14390     14392
     14391     14390     14396     14392     14390     14396     14393     14397     14398
     14394     14393     14395     14394     14393     14396     14394     14393     14397
     14395     14393     14396     14395     14393     14397     14396     14393     14397
     14397     14398     14399     14397     14398     14400     14397     14398     14401
     14398     14401     14402     14398     14401     14403     14398     14401     14409
     14399     14398     14400     14399     14398     14401     14400     14398     14401
     14401     14403     14404     14401     14409     14410     14401     14409     14411
     14401     14409     14412     14402     14401     14403     14402     14401     14409
     14403     14401     14409     14403     14404     14405     14403     14404     14406
     14404     14406     14407     14404     14406     14408     14404     14406     14418
     14405     14404     14406     14406     14418     14419     14406     14418     14420
     14406     14418     14421     14407     14406     14408     14407     14406     14418
     14408     14406     14418     14409     14412     14413     14410     14409     14411
     14410     14409     14412     14411     14409     14412     14412     14413     14414
     14412     14413     14415     14413     14415     14416     14413     14415     14417
     14413     14415     14465     14414     14413     14415     14415     14465     14466
     14415     14465     14467     14415     14465     14468     14416     14415     14417
     14416     14415     14465     14417     14415     14465     14418     14421     14422
     14418     14421     14423     14418     14421     14424     14419     14418     14420
     14419     14418     14421     14420     14418     14421     14421     14424     14425
     14421     14424     14426     14422     14421     14423     14422     14421     14424
     14423     14421     14424     14424     14426     14427     14424     14426     14428
     14425     14424     14426     14426     14428     14429     14426     14428     14430
     14426     14428     14431     14427     14426     14428     14428     14431     14432
     14428     14431     14433     14429     14428     14430     14429     14428     14431
     14430     14428     14431     14431     14433     14434     14431     14433     14435
     14432     14431     14433     14433     14435     14436     14433     14435     14437
     14433     14435     14438     14434     14433     14435     14435     14438     14439
     14435     14438     14440     14436     14435     14437     14436     14435     14438
     14437     14435     14438     14438     14440     14441     14438     14440     14442
     14439     14438     14440     14440     14442     14443     14440     14442     14444
     14440     14442     14445     14441     14440     14442     14442     14445     14446
     14442     14445     14447     14443     14442     14444     14443     14442     14445
     14444     14442     14445     14445     14447     14448     14445     14447     14449
     14446     14445     14447     14447     14449     14450     14447     14449     14451
     14447     14449     14452     14448     14447     14449     14449     14452     14453
     14449     14452     14454     14449     14452     14455     14450     14449     14451
     14450     14449     14452     14451     14449     14452     14452     14455     14456
     14452     14455     14457     14452     14455     14458     14453     14452     14454
     14453     14452     14455     14454     14452     14455     14455     14458     14459
     14455     14458     14460     14455     14458     14461     14456     14455     14457
     14456     14455     14458     14457     14455     14458     14458     14461     14462
     14458     14461     14463     14458     14461     14464     14459     14458     14460
     14459     14458     14461     14460     14458     14461     14462     14461     14463
     14462     14461     14464     14463     14461     14464     14465     14468     14469
     14465     14468     14470     14465     14468     14471     14466     14465     14467
     14466     14465     14468     14467     14465     14468     14468     14471     14472
     14468     14471     14473     14468     14471     14474     14469     14468     14470
     14469     14468     14471     14470     14468     14471     14471     14474     14475
     14471     14474     14476     14471     14474     14477     14472     14471     14473
     14472     14471     14474     14473     14471     14474     14474     14477     14478
     14474     14477     14479     14474     14477     14480     14475     14474     14476
     14475     14474     14477     14476     14474     14477     14477     14480     14481
     14477     14480     14482     14477     14480     14483     14478     14477     14479
     14478     14477     14480     14479     14477     14480     14480     14483     14484
     14480     14483     14485     14480     14483     14486     14481     14480     14482
     14481     14480     14483     14482     14480     14483     14483     14486     14487
     14483     14486     14488     14483     14486     14489     14484     14483     14485
     14484     14483     14486     14485     14483     14486     14486     14489     14490
     14486     14489     14491     14486     14489     14492     14487     14486     14488
     14487     14486     14489     14488     14486     14489     14489     14492     14493
     14489     14492     14494     14489     14492     14495     14490     14489     14491
     14490     14489     14492     14491     14489     14492     14492     14495     14496
     14492     14495     14497     14492     14495     14498     14493     14492     14494
     14493     14492     14495     14494     14492     14495     14495     14498     14499
     14495     14498     14500     14495     14498     14501     14496     14495     14497
     14496     14495     14498     14497     14495     14498     14498     14501     14502
     14498     14501     14503     14498     14501     14504     14499     14498     14500
     14499     14498     14501     14500     14498     14501     14501     14504     14505
     14501     14504     14506     14501     14504     14507     14502     14501     14503
     14502     14501     14504     14503     14501     14504     14504     14507     14508
     14504     14507     14509     14504     14507     14510     14505     14504     14506
     14505     14504     14507     14506     14504     14507     14507     14510     14511
     14507     14510     14512     14507     14510     14513     14508     14507     14509
     14508     14507     14510     14509     14507     14510     14511     14510     14512
     14511     14510     14513     14512     14510     14513     14514     14515     14516
     14514     14515     14517     14514     14515     14518     14514     14519     14520
     14514     14519     14521     14514     14519     14522     14514     14523     14524
     14514     14523     14525     14514     14523     14526     14514     14527     14528
     14514     14527     14529     14514     14527     14530     14515     14514     14519
     14515     14514     14523     14515     14514     14527     14516     14515     14517
     14516     14515     14518     14517     14515     14518     14519     14514     14523
     14519     14514     14527     14520     14519     14521     14520     14519     14522
     14521     14519     14522     14523     14514     14527     14524     14523     14525
     14524     14523     14526     14525     14523     14526     14527     14530     14531
     14527     14530     14532     14527     14530     14537     14528     14527     14529
     14528     14527     14530     14529     14527     14530     14530     14537     14533
     14531     14530     14532     14531     14530     14537     14532     14530     14537
     14533     14536     14538     14534     14533     14535     14534     14533     14536
     14534     14533     14537     14535     14533     14536     14535     14533     14537
     14536     14533     14537     14536     14538     14539     14536     14538     14540
     14536     14538     14543     14538     14543     14541     14538     14543     14544
     14538     14543     14545     14539     14538     14540     14539     14538     14543
     14540     14538     14543     14541     14543     14544     14541     14543     14545
     14541     14593     14594     14541     14593     14595     14542     14541     14543
     14542     14541     14593     14543     14541     14593     14543     14545     14546
     14543     14545     14547     14543     14545     14549     14544     14543     14545
     14545     14547     14548     14545     14549     14550     14545     14549     14551
     14546     14545     14547     14546     14545     14549     14547     14545     14549
     14549     14551     14552     14549     14551     14553     14550     14549     14551
     14551     14553     14554     14551     14553     14555     14551     14553     14556
     14552     14551     14553     14553     14556     14557     14553     14556     14558
     14553     14556     14559     14554     14553     14555     14554     14553     14556
     14555     14553     14556     14556     14559     14560     14556     14559     14561
     14556     14559     14562     14557     14556     14558     14557     14556     14559
     14558     14556     14559     14559     14562     14563     14559     14562     14564
     14559     14562     14565     14560     14559     14561     14560     14559     14562
     14561     14559     14562     14562     14565     14566     14562     14565     14567
     14562     14565     14568     14563     14562     14564     14563     14562     14565
     14564     14562     14565     14565     14568     14569     14565     14568     14570
     14565     14568     14571     14566     14565     14567     14566     14565     14568
     14567     14565     14568     14568     14571     14572     14568     14571     14573
     14568     14571     14574     14569     14568     14570     14569     14568     14571
     14570     14568     14571     14571     14574     14575     14571     14574     14576
     14571     14574     14577     14572     14571     14573     14572     14571     14574
     14573     14571     14574     14574     14577     14578     14574     14577     14579
     14574     14577     14580     14575     14574     14576     14575     14574     14577
     14576     14574     14577     14577     14580     14581     14577     14580     14582
     14577     14580     14583     14578     14577     14579     14578     14577     14580
     14579     14577     14580     14580     14583     14584     14580     14583     14585
     14580     14583     14586     14581     14580     14582     14581     14580     14583
     14582     14580     14583     14583     14586     14587     14583     14586     14588
     14583     14586     14589     14584     14583     14585     14584     14583     14586
     14585     14583     14586     14586     14589     14590     14586     14589     14591
     14586     14589     14592     14587     14586     14588     14587     14586     14589
     14588     14586     14589     14590     14589     14591     14590     14589     14592
     14591     14589     14592     14593     14595     14596     14593     14595     14597
     14593     14595     14598     14594     14593     14595     14595     14598     14599
     14595     14598     14600     14595     14598     14601     14596     14595     14597
     14596     14595     14598     14597     14595     14598     14598     14601     14602
     14598     14601     14603     14598     14601     14604     14599     14598     14600
     14599     14598     14601     14600     14598     14601     14601     14604     14605
     14601     14604     14606     14601     14604     14607     14602     14601     14603
     14602     14601     14604     14603     14601     14604     14604     14607     14608
     14604     14607     14609     14604     14607     14610     14605     14604     14606
     14605     14604     14607     14606     14604     14607     14607     14610     14611
     14607     14610     14612     14607     14610     14613     14608     14607     14609
     14608     14607     14610     14609     14607     14610     14610     14613     14614
     14610     14613     14615     14610     14613     14616     14611     14610     14612
     14611     14610     14613     14612     14610     14613     14613     14616     14617
     14613     14616     14618     14614     14613     14615     14614     14613     14616
     14615     14613     14616     14616     14618     14619     14616     14618     14620
     14617     14616     14618     14618     14620     14621     14618     14620     14622
     14618     14620     14623     14619     14618     14620     14620     14623     14624
     14620     14623     14625     14620     14623     14626     14621     14620     14622
     14621     14620     14623     14622     14620     14623     14623     14626     14627
     14623     14626     14628     14623     14626     14629     14624     14623     14625
     14624     14623     14626     14625     14623     14626     14626     14629     14630
     14626     14629     14631     14626     14629     14632     14627     14626     14628
     14627     14626     14629     14628     14626     14629     14629     14632     14633
     14629     14632     14634     14629     14632     14635     14630     14629     14631
     14630     14629     14632     14631     14629     14632     14632     14635     14636
     14632     14635     14637     14632     14635     14638     14633     14632     14634
     14633     14632     14635     14634     14632     14635     14635     14638     14639
     14635     14638     14640     14635     14638     14641     14636     14635     14637
     14636     14635     14638     14637     14635     14638     14638     14641     14642
     14638     14641     14643     14638     14641     14644     14639     14638     14640
     14639     14638     14641     14640     14638     14641     14642     14641     14643
     14642     14641     14644     14643     14641     14644     14645     14647     14648
     14645     14649     14650     14645     14649     14651     14645     14649     14652
     14645     14691     14688     14645     14691     14692     14645     14691     14693
     14646     14645     14647     14646     14645     14649     14646     14645     14691
     14647     14645     14649     14647     14645     14691     14649     14645     14691
     14649     14652     14653     14649     14652     14683     14650     14649     14651
     14650     14649     14652     14651     14649     14652     14652     14653     14654
     14652     14653     14655     14652     14683     14681     14652     14683     14684
     14652     14683     14688     14653     14652     14683     14653     14655     14656
     14653     14655     14657     14653     14655     14658     14654     14653     14655
     14655     14658     14659     14655     14658     14660     14655     14658     14681
     14656     14655     14657     14656     14655     14658     14657     14655     14658
     14658     14660     14661     14658     14660     14662     14658     14660     14670
     14658     14681     14678     14658     14681     14682     14658     14681     14683
     14659     14658     14660     14659     14658     14681     14660     14658     14681
     14660     14662     14663     14660     14662     14664     14660     14662     14665
     14660     14670     14668     14660     14670     14671     14660     14670     14675
     14661     14660     14662     14661     14660     14670     14662     14660     14670
     14662     14665     14666     14662     14665     14667     14662     14665     14668
     14663     14662     14664     14663     14662     14665     14664     14662     14665
     14665     14668     14669     14665     14668     14670     14665     14668     14694
     14666     14665     14667     14666     14665     14668     14667     14665     14668
     14668     14670     14671     14668     14670     14675     14668     14694     14695
     14668     14694     14696     14668     14694     14700     14669     14668     14670
     14669     14668     14694     14670     14668     14694     14670     14671     14672
     14670     14671     14673     14670     14671     14674     14670     14675     14676
     14670     14675     14677     14670     14675     14678     14671     14670     14675
     14672     14671     14673     14672     14671     14674     14673     14671     14674
     14675     14678     14679     14675     14678     14680     14675     14678     14681
     14676     14675     14677     14676     14675     14678     14677     14675     14678
     14678     14681     14682     14678     14681     14683     14679     14678     14680
     14679     14678     14681     14680     14678     14681     14681     14683     14684
     14681     14683     14688     14682     14681     14683     14683     14684     14685
     14683     14684     14686     14683     14684     14687     14683     14688     14689
     14683     14688     14690     14683     14688     14691     14684     14683     14688
     14685     14684     14686     14685     14684     14687     14686     14684     14687
     14688     14691     14692     14688     14691     14693     14689     14688     14690
     14689     14688     14691     14690     14688     14691     14692     14691     14693
     14694     14696     14697     14694     14696     14698     14694     14696     14699
     14694     14700     14701     14694     14700     14702     14694     14700     14703
     14695     14694     14696     14695     14694     14700     14696     14694     14700
     14697     14696     14698     14697     14696     14699     14698     14696     14699
     14700     14703     14704     14700     14703     14705     14700     14703     14706
     14701     14700     14702     14701     14700     14703     14702     14700     14703
     14703     14706     14707     14703     14706     14708     14703     14706     14709
     14704     14703     14705     14704     14703     14706     14705     14703     14706
     14706     14709     14710     14706     14709     14711     14706     14709     14715
     14707     14706     14708     14707     14706     14709     14708     14706     14709
     14709     14711     14712     14709     14711     14713     14709     14711     14714
     14709     14715     14716     14709     14715     14717     14709     14715     14718
     14710     14709     14711     14710     14709     14715     14711     14709     14715
     14712     14711     14713     14712     14711     14714     14713     14711     14714
     14716     14715     14717     14716     14715     14718     14717     14715     14718
     14719     14723     14724     14719     14723     14725     14719     14723     14728
     14720     14719     14721     14720     14719     14722     14720     14719     14723
     14721     14719     14722     14721     14719     14723     14722     14719     14723
     14723     14725     14726     14723     14725     14727     14723     14728     14729
     14723     14728     14730     14723     14728     14734     14724     14723     14725
     14724     14723     14728     14725     14723     14728     14726     14725     14727
     14728     14734     14731     14729     14728     14730     14729     14728     14734
     14730     14728     14734     14731     14735     14736     14732     14731     14733
     14732     14731     14734     14732     14731     14735     14733     14731     14734
     14733     14731     14735     14734     14731     14735     14735     14736     14737
     14735     14736     14738     14735     14736     14739     14736     14739     14740
     14736     14739     14741     14736     14739     14747     14737     14736     14738
     14737     14736     14739     14738     14736     14739     14739     14741     14742
     14739     14747     14748     14739     14747     14749     14739     14747     14750
     14740     14739     14741     14740     14739     14747     14741     14739     14747
     14741     14742     14743     14741     14742     14744     14742     14744     14745
     14742     14744     14746     14742     14744     14756     14743     14742     14744
     14744     14756     14757     14744     14756     14758     14744     14756     14759
     14745     14744     14746     14745     14744     14756     14746     14744     14756
     14747     14750     14751     14748     14747     14749     14748     14747     14750
     14749     14747     14750     14750     14751     14752     14750     14751     14753
     14751     14753     14754     14751     14753     14755     14751     14753     14803
     14752     14751     14753     14753     14803     14804     14753     14803     14805
     14753     14803     14806     14754     14753     14755     14754     14753     14803
     14755     14753     14803     14756     14759     14760     14756     14759     14761
     14756     14759     14762     14757     14756     14758     14757     14756     14759
     14758     14756     14759     14759     14762     14763     14759     14762     14764
     14760     14759     14761     14760     14759     14762     14761     14759     14762
     14762     14764     14765     14762     14764     14766     14763     14762     14764
     14764     14766     14767     14764     14766     14768     14764     14766     14769
     14765     14764     14766     14766     14769     14770     14766     14769     14771
     14767     14766     14768     14767     14766     14769     14768     14766     14769
     14769     14771     14772     14769     14771     14773     14770     14769     14771
     14771     14773     14774     14771     14773     14775     14771     14773     14776
     14772     14771     14773     14773     14776     14777     14773     14776     14778
     14774     14773     14775     14774     14773     14776     14775     14773     14776
     14776     14778     14779     14776     14778     14780     14777     14776     14778
     14778     14780     14781     14778     14780     14782     14778     14780     14783
     14779     14778     14780     14780     14783     14784     14780     14783     14785
     14781     14780     14782     14781     14780     14783     14782     14780     14783
     14783     14785     14786     14783     14785     14787     14784     14783     14785
     14785     14787     14788     14785     14787     14789     14785     14787     14790
     14786     14785     14787     14787     14790     14791     14787     14790     14792
     14787     14790     14793     14788     14787     14789     14788     14787     14790
     14789     14787     14790     14790     14793     14794     14790     14793     14795
     14790     14793     14796     14791     14790     14792     14791     14790     14793
     14792     14790     14793     14793     14796     14797     14793     14796     14798
     14793     14796     14799     14794     14793     14795     14794     14793     14796
     14795     14793     14796     14796     14799     14800     14796     14799     14801
     14796     14799     14802     14797     14796     14798     14797     14796     14799
     14798     14796     14799     14800     14799     14801     14800     14799     14802
     14801     14799     14802     14803     14806     14807     14803     14806     14808
     14803     14806     14809     14804     14803     14805     14804     14803     14806
     14805     14803     14806     14806     14809     14810     14806     14809     14811
     14806     14809     14812     14807     14806     14808     14807     14806     14809
     14808     14806     14809     14809     14812     14813     14809     14812     14814
     14809     14812     14815     14810     14809     14811     14810     14809     14812
     14811     14809     14812     14812     14815     14816     14812     14815     14817
     14812     14815     14818     14813     14812     14814     14813     14812     14815
     14814     14812     14815     14815     14818     14819     14815     14818     14820
     14815     14818     14821     14816     14815     14817     14816     14815     14818
     14817     14815     14818     14818     14821     14822     14818     14821     14823
     14818     14821     14824     14819     14818     14820     14819     14818     14821
     14820     14818     14821     14821     14824     14825     14821     14824     14826
     14821     14824     14827     14822     14821     14823     14822     14821     14824
     14823     14821     14824     14824     14827     14828     14824     14827     14829
     14824     14827     14830     14825     14824     14826     14825     14824     14827
     14826     14824     14827     14827     14830     14831     14827     14830     14832
     14827     14830     14833     14828     14827     14829     14828     14827     14830
     14829     14827     14830     14830     14833     14834     14830     14833     14835
     14830     14833     14836     14831     14830     14832     14831     14830     14833
     14832     14830     14833     14833     14836     14837     14833     14836     14838
     14833     14836     14839     14834     14833     14835     14834     14833     14836
     14835     14833     14836     14836     14839     14840     14836     14839     14841
     14836     14839     14842     14837     14836     14838     14837     14836     14839
     14838     14836     14839     14839     14842     14843     14839     14842     14844
     14839     14842     14845     14840     14839     14841     14840     14839     14842
     14841     14839     14842     14842     14845     14846     14842     14845     14847
     14842     14845     14848     14843     14842     14844     14843     14842     14845
     14844     14842     14845     14845     14848     14849     14845     14848     14850
     14845     14848     14851     14846     14845     14847     14846     14845     14848
     14847     14845     14848     14849     14848     14850     14849     14848     14851
     14850     14848     14851     14852     14854     14855     14852     14856     14857
     14852     14856     14858     14852     14856     14859     14852     14898     14895
     14852     14898     14899     14852     14898     14900     14853     14852     14854
     14853     14852     14856     14853     14852     14898     14854     14852     14856
     14854     14852     14898     14856     14852     14898     14856     14859     14860
     14856     14859     14890     14857     14856     14858     14857     14856     14859
     14858     14856     14859     14859     14860     14861     14859     14860     14862
     14859     14890     14888     14859     14890     14891     14859     14890     14895
     14860     14859     14890     14860     14862     14863     14860     14862     14864
     14860     14862     14865     14861     14860     14862     14862     14865     14866
     14862     14865     14867     14862     14865     14888     14863     14862     14864
     14863     14862     14865     14864     14862     14865     14865     14867     14868
     14865     14867     14869     14865     14867     14877     14865     14888     14885
     14865     14888     14889     14865     14888     14890     14866     14865     14867
     14866     14865     14888     14867     14865     14888     14867     14869     14870
     14867     14869     14871     14867     14869     14872     14867     14877     14875
     14867     14877     14878     14867     14877     14882     14868     14867     14869
     14868     14867     14877     14869     14867     14877     14869     14872     14873
     14869     14872     14874     14869     14872     14875     14870     14869     14871
     14870     14869     14872     14871     14869     14872     14872     14875     14876
     14872     14875     14877     14872     14875     14901     14873     14872     14874
     14873     14872     14875     14874     14872     14875     14875     14877     14878
     14875     14877     14882     14875     14901     14902     14875     14901     14903
     14875     14901     14907     14876     14875     14877     14876     14875     14901
     14877     14875     14901     14877     14878     14879     14877     14878     14880
     14877     14878     14881     14877     14882     14883     14877     14882     14884
     14877     14882     14885     14878     14877     14882     14879     14878     14880
     14879     14878     14881     14880     14878     14881     14882     14885     14886
     14882     14885     14887     14882     14885     14888     14883     14882     14884
     14883     14882     14885     14884     14882     14885     14885     14888     14889
     14885     14888     14890     14886     14885     14887     14886     14885     14888
     14887     14885     14888     14888     14890     14891     14888     14890     14895
     14889     14888     14890     14890     14891     14892     14890     14891     14893
     14890     14891     14894     14890     14895     14896     14890     14895     14897
     14890     14895     14898     14891     14890     14895     14892     14891     14893
     14892     14891     14894     14893     14891     14894     14895     14898     14899
     14895     14898     14900     14896     14895     14897     14896     14895     14898
     14897     14895     14898     14899     14898     14900     14901     14903     14904
     14901     14903     14905     14901     14903     14906     14901     14907     14908
     14901     14907     14909     14901     14907     14910     14902     14901     14903
     14902     14901     14907     14903     14901     14907     14904     14903     14905
     14904     14903     14906     14905     14903     14906     14907     14910     14911
     14907     14910     14912     14907     14910     14913     14908     14907     14909
     14908     14907     14910     14909     14907     14910     14910     14913     14914
     14910     14913     14915     14910     14913     14916     14911     14910     14912
     14911     14910     14913     14912     14910     14913     14913     14916     14917
     14913     14916     14918     14913     14916     14922     14914     14913     14915
     14914     14913     14916     14915     14913     14916     14916     14918     14919
     14916     14918     14920     14916     14918     14921     14916     14922     14923
     14916     14922     14924     14916     14922     14925     14917     14916     14918
     14917     14916     14922     14918     14916     14922     14919     14918     14920
     14919     14918     14921     14920     14918     14921     14923     14922     14924
     14923     14922     14925     14924     14922     14925     14926     14930     14931
     14926     14930     14932     14926     14930     14935     14927     14926     14928
     14927     14926     14929     14927     14926     14930     14928     14926     14929
     14928     14926     14930     14929     14926     14930     14930     14932     14933
     14930     14932     14934     14930     14935     14936     14930     14935     14937
     14930     14935     14941     14931     14930     14932     14931     14930     14935
     14932     14930     14935     14933     14932     14934     14935     14941     14938
     14936     14935     14937     14936     14935     14941     14937     14935     14941
     14938     14942     14943     14939     14938     14940     14939     14938     14941
     14939     14938     14942     14940     14938     14941     14940     14938     14942
     14941     14938     14942     14942     14943     14944     14942     14943     14945
     14942     14943     14946     14943     14946     14947     14943     14946     14948
     14943     14946     14954     14944     14943     14945     14944     14943     14946
     14945     14943     14946     14946     14948     14949     14946     14954     14955
     14946     14954     14956     14946     14954     14957     14947     14946     14948
     14947     14946     14954     14948     14946     14954     14948     14949     14950
     14948     14949     14951     14949     14951     14952     14949     14951     14953
     14949     14951     14963     14950     14949     14951     14951     14963     14964
     14951     14963     14965     14951     14963     14966     14952     14951     14953
     14952     14951     14963     14953     14951     14963     14954     14957     14958
     14955     14954     14956     14955     14954     14957     14956     14954     14957
     14957     14958     14959     14957     14958     14960     14958     14960     14961
     14958     14960     14962     14958     14960     15010     14959     14958     14960
     14960     15010     15011     14960     15010     15012     14960     15010     15013
     14961     14960     14962     14961     14960     15010     14962     14960     15010
     14963     14966     14967     14963     14966     14968     14963     14966     14969
     14964     14963     14965     14964     14963     14966     14965     14963     14966
     14966     14969     14970     14966     14969     14971     14967     14966     14968
     14967     14966     14969     14968     14966     14969     14969     14971     14972
     14969     14971     14973     14970     14969     14971     14971     14973     14974
     14971     14973     14975     14971     14973     14976     14972     14971     14973
     14973     14976     14977     14973     14976     14978     14974     14973     14975
     14974     14973     14976     14975     14973     14976     14976     14978     14979
     14976     14978     14980     14977     14976     14978     14978     14980     14981
     14978     14980     14982     14978     14980     14983     14979     14978     14980
     14980     14983     14984     14980     14983     14985     14981     14980     14982
     14981     14980     14983     14982     14980     14983     14983     14985     14986
     14983     14985     14987     14984     14983     14985     14985     14987     14988
     14985     14987     14989     14985     14987     14990     14986     14985     14987
     14987     14990     14991     14987     14990     14992     14988     14987     14989
     14988     14987     14990     14989     14987     14990     14990     14992     14993
     14990     14992     14994     14991     14990     14992     14992     14994     14995
     14992     14994     14996     14992     14994     14997     14993     14992     14994
     14994     14997     14998     14994     14997     14999     14994     14997     15000
     14995     14994     14996     14995     14994     14997     14996     14994     14997
     14997     15000     15001     14997     15000     15002     14997     15000     15003
     14998     14997     14999     14998     14997     15000     14999     14997     15000
     15000     15003     15004     15000     15003     15005     15000     15003     15006
     15001     15000     15002     15001     15000     15003     15002     15000     15003
     15003     15006     15007     15003     15006     15008     15003     15006     15009
     15004     15003     15005     15004     15003     15006     15005     15003     15006
     15007     15006     15008     15007     15006     15009     15008     15006     15009
     15010     15013     15014     15010     15013     15015     15010     15013     15016
     15011     15010     15012     15011     15010     15013     15012     15010     15013
     15013     15016     15017     15013     15016     15018     15013     15016     15019
     15014     15013     15015     15014     15013     15016     15015     15013     15016
     15016     15019     15020     15016     15019     15021     15016     15019     15022
     15017     15016     15018     15017     15016     15019     15018     15016     15019
     15019     15022     15023     15019     15022     15024     15019     15022     15025
     15020     15019     15021     15020     15019     15022     15021     15019     15022
     15022     15025     15026     15022     15025     15027     15022     15025     15028
     15023     15022     15024     15023     15022     15025     15024     15022     15025
     15025     15028     15029     15025     15028     15030     15025     15028     15031
     15026     15025     15027     15026     15025     15028     15027     15025     15028
     15028     15031     15032     15028     15031     15033     15028     15031     15034
     15029     15028     15030     15029     15028     15031     15030     15028     15031
     15031     15034     15035     15031     15034     15036     15031     15034     15037
     15032     15031     15033     15032     15031     15034     15033     15031     15034
     15034     15037     15038     15034     15037     15039     15034     15037     15040
     15035     15034     15036     15035     15034     15037     15036     15034     15037
     15037     15040     15041     15037     15040     15042     15037     15040     15043
     15038     15037     15039     15038     15037     15040     15039     15037     15040
     15040     15043     15044     15040     15043     15045     15040     15043     15046
     15041     15040     15042     15041     15040     15043     15042     15040     15043
     15043     15046     15047     15043     15046     15048     15043     15046     15049
     15044     15043     15045     15044     15043     15046     15045     15043     15046
     15046     15049     15050     15046     15049     15051     15046     15049     15052
     15047     15046     15048     15047     15046     15049     15048     15046     15049
     15049     15052     15053     15049     15052     15054     15049     15052     15055
     15050     15049     15051     15050     15049     15052     15051     15049     15052
     15052     15055     15056     15052     15055     15057     15052     15055     15058
     15053     15052     15054     15053     15052     15055     15054     15052     15055
     15056     15055     15057     15056     15055     15058     15057     15055     15058
     15059     15060     15061     15059     15060     15062     15059     15060     15063
     15059     15064     15065     15059     15064     15066     15059     15064     15067
     15059     15068     15069     15059     15068     15070     15059     15068     15071
     15059     15072     15073     15059     15072     15074     15059     15072     15075
     15060     15059     15064     15060     15059     15068     15060     15059     15072
     15061     15060     15062     15061     15060     15063     15062     15060     15063
     15064     15059     15068     15064     15059     15072     15065     15064     15066
     15065     15064     15067     15066     15064     15067     15068     15059     15072
     15069     15068     15070     15069     15068     15071     15070     15068     15071
     15072     15075     15076     15072     15075     15077     15072     15075     15082
     15073     15072     15074     15073     15072     15075     15074     15072     15075
     15075     15082     15078     15076     15075     15077     15076     15075     15082
     15077     15075     15082     15078     15081     15083     15079     15078     15080
     15079     15078     15081     15079     15078     15082     15080     15078     15081
     15080     15078     15082     15081     15078     15082     15081     15083     15084
     15081     15083     15085     15081     15083     15088     15083     15088     15086
     15083     15088     15089     15083     15088     15090     15084     15083     15085
     15084     15083     15088     15085     15083     15088     15086     15088     15089
     15086     15088     15090     15086     15138     15139     15086     15138     15140
     15087     15086     15088     15087     15086     15138     15088     15086     15138
     15088     15090     15091     15088     15090     15092     15088     15090     15094
     15089     15088     15090     15090     15092     15093     15090     15094     15095
     15090     15094     15096     15091     15090     15092     15091     15090     15094
     15092     15090     15094     15094     15096     15097     15094     15096     15098
     15095     15094     15096     15096     15098     15099     15096     15098     15100
     15096     15098     15101     15097     15096     15098     15098     15101     15102
     15098     15101     15103     15098     15101     15104     15099     15098     15100
     15099     15098     15101     15100     15098     15101     15101     15104     15105
     15101     15104     15106     15101     15104     15107     15102     15101     15103
     15102     15101     15104     15103     15101     15104     15104     15107     15108
     15104     15107     15109     15104     15107     15110     15105     15104     15106
     15105     15104     15107     15106     15104     15107     15107     15110     15111
     15107     15110     15112     15107     15110     15113     15108     15107     15109
     15108     15107     15110     15109     15107     15110     15110     15113     15114
     15110     15113     15115     15110     15113     15116     15111     15110     15112
     15111     15110     15113     15112     15110     15113     15113     15116     15117
     15113     15116     15118     15113     15116     15119     15114     15113     15115
     15114     15113     15116     15115     15113     15116     15116     15119     15120
     15116     15119     15121     15116     15119     15122     15117     15116     15118
     15117     15116     15119     15118     15116     15119     15119     15122     15123
     15119     15122     15124     15119     15122     15125     15120     15119     15121
     15120     15119     15122     15121     15119     15122     15122     15125     15126
     15122     15125     15127     15122     15125     15128     15123     15122     15124
     15123     15122     15125     15124     15122     15125     15125     15128     15129
     15125     15128     15130     15125     15128     15131     15126     15125     15127
     15126     15125     15128     15127     15125     15128     15128     15131     15132
     15128     15131     15133     15128     15131     15134     15129     15128     15130
     15129     15128     15131     15130     15128     15131     15131     15134     15135
     15131     15134     15136     15131     15134     15137     15132     15131     15133
     15132     15131     15134     15133     15131     15134     15135     15134     15136
     15135     15134     15137     15136     15134     15137     15138     15140     15141
     15138     15140     15142     15138     15140     15143     15139     15138     15140
     15140     15143     15144     15140     15143     15145     15140     15143     15146
     15141     15140     15142     15141     15140     15143     15142     15140     15143
     15143     15146     15147     15143     15146     15148     15143     15146     15149
     15144     15143     15145     15144     15143     15146     15145     15143     15146
     15146     15149     15150     15146     15149     15151     15146     15149     15152
     15147     15146     15148     15147     15146     15149     15148     15146     15149
     15149     15152     15153     15149     15152     15154     15149     15152     15155
     15150     15149     15151     15150     15149     15152     15151     15149     15152
     15152     15155     15156     15152     15155     15157     15152     15155     15158
     15153     15152     15154     15153     15152     15155     15154     15152     15155
     15155     15158     15159     15155     15158     15160     15155     15158     15161
     15156     15155     15157     15156     15155     15158     15157     15155     15158
     15158     15161     15162     15158     15161     15163     15159     15158     15160
     15159     15158     15161     15160     15158     15161     15161     15163     15164
     15161     15163     15165     15162     15161     15163     15163     15165     15166
     15163     15165     15167     15163     15165     15168     15164     15163     15165
     15165     15168     15169     15165     15168     15170     15165     15168     15171
     15166     15165     15167     15166     15165     15168     15167     15165     15168
     15168     15171     15172     15168     15171     15173     15168     15171     15174
     15169     15168     15170     15169     15168     15171     15170     15168     15171
     15171     15174     15175     15171     15174     15176     15171     15174     15177
     15172     15171     15173     15172     15171     15174     15173     15171     15174
     15174     15177     15178     15174     15177     15179     15174     15177     15180
     15175     15174     15176     15175     15174     15177     15176     15174     15177
     15177     15180     15181     15177     15180     15182     15177     15180     15183
     15178     15177     15179     15178     15177     15180     15179     15177     15180
     15180     15183     15184     15180     15183     15185     15180     15183     15186
     15181     15180     15182     15181     15180     15183     15182     15180     15183
     15183     15186     15187     15183     15186     15188     15183     15186     15189
     15184     15183     15185     15184     15183     15186     15185     15183     15186
     15187     15186     15188     15187     15186     15189     15188     15186     15189
     15190     15194     15195     15190     15194     15196     15190     15194     15197
     15191     15190     15192     15191     15190     15193     15191     15190     15194
     15192     15190     15193     15192     15190     15194     15193     15190     15194
     15194     15197     15198     15194     15197     15199     15194     15197     15203
     15195     15194     15196     15195     15194     15197     15196     15194     15197
     15197     15203     15200     15198     15197     15199     15198     15197     15203
     15199     15197     15203     15200     15204     15205     15201     15200     15202
     15201     15200     15203     15201     15200     15204     15202     15200     15203
     15202     15200     15204     15203     15200     15204     15204     15205     15206
     15204     15205     15207     15204     15205     15208     15205     15208     15209
     15205     15208     15210     15205     15208     15216     15206     15205     15207
     15206     15205     15208     15207     15205     15208     15208     15210     15211
     15208     15216     15217     15208     15216     15218     15208     15216     15219
     15209     15208     15210     15209     15208     15216     15210     15208     15216
     15210     15211     15212     15210     15211     15213     15211     15213     15214
     15211     15213     15215     15211     15213     15225     15212     15211     15213
     15213     15225     15226     15213     15225     15227     15213     15225     15228
     15214     15213     15215     15214     15213     15225     15215     15213     15225
     15216     15219     15220     15217     15216     15218     15217     15216     15219
     15218     15216     15219     15219     15220     15221     15219     15220     15222
     15220     15222     15223     15220     15222     15224     15220     15222     15272
     15221     15220     15222     15222     15272     15273     15222     15272     15274
     15222     15272     15275     15223     15222     15224     15223     15222     15272
     15224     15222     15272     15225     15228     15229     15225     15228     15230
     15225     15228     15231     15226     15225     15227     15226     15225     15228
     15227     15225     15228     15228     15231     15232     15228     15231     15233
     15229     15228     15230     15229     15228     15231     15230     15228     15231
     15231     15233     15234     15231     15233     15235     15232     15231     15233
     15233     15235     15236     15233     15235     15237     15233     15235     15238
     15234     15233     15235     15235     15238     15239     15235     15238     15240
     15236     15235     15237     15236     15235     15238     15237     15235     15238
     15238     15240     15241     15238     15240     15242     15239     15238     15240
     15240     15242     15243     15240     15242     15244     15240     15242     15245
     15241     15240     15242     15242     15245     15246     15242     15245     15247
     15243     15242     15244     15243     15242     15245     15244     15242     15245
     15245     15247     15248     15245     15247     15249     15246     15245     15247
     15247     15249     15250     15247     15249     15251     15247     15249     15252
     15248     15247     15249     15249     15252     15253     15249     15252     15254
     15250     15249     15251     15250     15249     15252     15251     15249     15252
     15252     15254     15255     15252     15254     15256     15253     15252     15254
     15254     15256     15257     15254     15256     15258     15254     15256     15259
     15255     15254     15256     15256     15259     15260     15256     15259     15261
     15256     15259     15262     15257     15256     15258     15257     15256     15259
     15258     15256     15259     15259     15262     15263     15259     15262     15264
     15259     15262     15265     15260     15259     15261     15260     15259     15262
     15261     15259     15262     15262     15265     15266     15262     15265     15267
     15262     15265     15268     15263     15262     15264     15263     15262     15265
     15264     15262     15265     15265     15268     15269     15265     15268     15270
     15265     15268     15271     15266     15265     15267     15266     15265     15268
     15267     15265     15268     15269     15268     15270     15269     15268     15271
     15270     15268     15271     15272     15275     15276     15272     15275     15277
     15272     15275     15278     15273     15272     15274     15273     15272     15275
     15274     15272     15275     15275     15278     15279     15275     15278     15280
     15275     15278     15281     15276     15275     15277     15276     15275     15278
     15277     15275     15278     15278     15281     15282     15278     15281     15283
     15278     15281     15284     15279     15278     15280     15279     15278     15281
     15280     15278     15281     15281     15284     15285     15281     15284     15286
     15281     15284     15287     15282     15281     15283     15282     15281     15284
     15283     15281     15284     15284     15287     15288     15284     15287     15289
     15284     15287     15290     15285     15284     15286     15285     15284     15287
     15286     15284     15287     15287     15290     15291     15287     15290     15292
     15287     15290     15293     15288     15287     15289     15288     15287     15290
     15289     15287     15290     15290     15293     15294     15290     15293     15295
     15290     15293     15296     15291     15290     15292     15291     15290     15293
     15292     15290     15293     15293     15296     15297     15293     15296     15298
     15293     15296     15299     15294     15293     15295     15294     15293     15296
     15295     15293     15296     15296     15299     15300     15296     15299     15301
     15296     15299     15302     15297     15296     15298     15297     15296     15299
     15298     15296     15299     15299     15302     15303     15299     15302     15304
     15299     15302     15305     15300     15299     15301     15300     15299     15302
     15301     15299     15302     15302     15305     15306     15302     15305     15307
     15302     15305     15308     15303     15302     15304     15303     15302     15305
     15304     15302     15305     15305     15308     15309     15305     15308     15310
     15305     15308     15311     15306     15305     15307     15306     15305     15308
     15307     15305     15308     15308     15311     15312     15308     15311     15313
     15308     15311     15314     15309     15308     15310     15309     15308     15311
     15310     15308     15311     15311     15314     15315     15311     15314     15316
     15311     15314     15317     15312     15311     15313     15312     15311     15314
     15313     15311     15314     15314     15317     15318     15314     15317     15319
     15314     15317     15320     15315     15314     15316     15315     15314     15317
     15316     15314     15317     15318     15317     15319     15318     15317     15320
     15319     15317     15320     15321     15323     15324     15321     15325     15326
     15321     15325     15327     15321     15325     15328     15321     15367     15364
     15321     15367     15368     15321     15367     15369     15322     15321     15323
     15322     15321     15325     15322     15321     15367     15323     15321     15325
     15323     15321     15367     15325     15321     15367     15325     15328     15329
     15325     15328     15359     15326     15325     15327     15326     15325     15328
     15327     15325     15328     15328     15329     15330     15328     15329     15331
     15328     15359     15357     15328     15359     15360     15328     15359     15364
     15329     15328     15359     15329     15331     15332     15329     15331     15333
     15329     15331     15334     15330     15329     15331     15331     15334     15335
     15331     15334     15336     15331     15334     15357     15332     15331     15333
     15332     15331     15334     15333     15331     15334     15334     15336     15337
     15334     15336     15338     15334     15336     15346     15334     15357     15354
     15334     15357     15358     15334     15357     15359     15335     15334     15336
     15335     15334     15357     15336     15334     15357     15336     15338     15339
     15336     15338     15340     15336     15338     15341     15336     15346     15344
     15336     15346     15347     15336     15346     15351     15337     15336     15338
     15337     15336     15346     15338     15336     15346     15338     15341     15342
     15338     15341     15343     15338     15341     15344     15339     15338     15340
     15339     15338     15341     15340     15338     15341     15341     15344     15345
     15341     15344     15346     15341     15344     15370     15342     15341     15343
     15342     15341     15344     15343     15341     15344     15344     15346     15347
     15344     15346     15351     15344     15370     15371     15344     15370     15372
     15344     15370     15376     15345     15344     15346     15345     15344     15370
     15346     15344     15370     15346     15347     15348     15346     15347     15349
     15346     15347     15350     15346     15351     15352     15346     15351     15353
     15346     15351     15354     15347     15346     15351     15348     15347     15349
     15348     15347     15350     15349     15347     15350     15351     15354     15355
     15351     15354     15356     15351     15354     15357     15352     15351     15353
     15352     15351     15354     15353     15351     15354     15354     15357     15358
     15354     15357     15359     15355     15354     15356     15355     15354     15357
     15356     15354     15357     15357     15359     15360     15357     15359     15364
     15358     15357     15359     15359     15360     15361     15359     15360     15362
     15359     15360     15363     15359     15364     15365     15359     15364     15366
     15359     15364     15367     15360     15359     15364     15361     15360     15362
     15361     15360     15363     15362     15360     15363     15364     15367     15368
     15364     15367     15369     15365     15364     15366     15365     15364     15367
     15366     15364     15367     15368     15367     15369     15370     15372     15373
     15370     15372     15374     15370     15372     15375     15370     15376     15377
     15370     15376     15378     15370     15376     15379     15371     15370     15372
     15371     15370     15376     15372     15370     15376     15373     15372     15374
     15373     15372     15375     15374     15372     15375     15376     15379     15380
     15376     15379     15381     15376     15379     15382     15377     15376     15378
     15377     15376     15379     15378     15376     15379     15379     15382     15383
     15379     15382     15384     15379     15382     15385     15380     15379     15381
     15380     15379     15382     15381     15379     15382     15382     15385     15386
     15382     15385     15387     15382     15385     15391     15383     15382     15384
     15383     15382     15385     15384     15382     15385     15385     15387     15388
     15385     15387     15389     15385     15387     15390     15385     15391     15392
     15385     15391     15393     15385     15391     15394     15386     15385     15387
     15386     15385     15391     15387     15385     15391     15388     15387     15389
     15388     15387     15390     15389     15387     15390     15392     15391     15393
     15392     15391     15394     15393     15391     15394     15395     15396     15397
     15395     15396     15398     15395     15396     15399     15395     15400     15401
     15395     15400     15402     15395     15400     15403     15395     15404     15405
     15395     15404     15406     15395     15404     15407     15395     15408     15409
     15395     15408     15410     15395     15408     15411     15396     15395     15400
     15396     15395     15404     15396     15395     15408     15397     15396     15398
     15397     15396     15399     15398     15396     15399     15400     15395     15404
     15400     15395     15408     15401     15400     15402     15401     15400     15403
     15402     15400     15403     15404     15395     15408     15405     15404     15406
     15405     15404     15407     15406     15404     15407     15408     15411     15412
     15408     15411     15413     15408     15411     15418     15409     15408     15410
     15409     15408     15411     15410     15408     15411     15411     15418     15414
     15412     15411     15413     15412     15411     15418     15413     15411     15418
     15414     15417     15419     15415     15414     15416     15415     15414     15417
     15415     15414     15418     15416     15414     15417     15416     15414     15418
     15417     15414     15418     15417     15419     15420     15417     15419     15421
     15417     15419     15424     15419     15424     15422     15419     15424     15425
     15419     15424     15426     15420     15419     15421     15420     15419     15424
     15421     15419     15424     15422     15424     15425     15422     15424     15426
     15422     15474     15475     15422     15474     15476     15423     15422     15424
     15423     15422     15474     15424     15422     15474     15424     15426     15427
     15424     15426     15428     15424     15426     15430     15425     15424     15426
     15426     15428     15429     15426     15430     15431     15426     15430     15432
     15427     15426     15428     15427     15426     15430     15428     15426     15430
     15430     15432     15433     15430     15432     15434     15431     15430     15432
     15432     15434     15435     15432     15434     15436     15432     15434     15437
     15433     15432     15434     15434     15437     15438     15434     15437     15439
     15434     15437     15440     15435     15434     15436     15435     15434     15437
     15436     15434     15437     15437     15440     15441     15437     15440     15442
     15437     15440     15443     15438     15437     15439     15438     15437     15440
     15439     15437     15440     15440     15443     15444     15440     15443     15445
     15440     15443     15446     15441     15440     15442     15441     15440     15443
     15442     15440     15443     15443     15446     15447     15443     15446     15448
     15443     15446     15449     15444     15443     15445     15444     15443     15446
     15445     15443     15446     15446     15449     15450     15446     15449     15451
     15446     15449     15452     15447     15446     15448     15447     15446     15449
     15448     15446     15449     15449     15452     15453     15449     15452     15454
     15449     15452     15455     15450     15449     15451     15450     15449     15452
     15451     15449     15452     15452     15455     15456     15452     15455     15457
     15452     15455     15458     15453     15452     15454     15453     15452     15455
     15454     15452     15455     15455     15458     15459     15455     15458     15460
     15455     15458     15461     15456     15455     15457     15456     15455     15458
     15457     15455     15458     15458     15461     15462     15458     15461     15463
     15458     15461     15464     15459     15458     15460     15459     15458     15461
     15460     15458     15461     15461     15464     15465     15461     15464     15466
     15461     15464     15467     15462     15461     15463     15462     15461     15464
     15463     15461     15464     15464     15467     15468     15464     15467     15469
     15464     15467     15470     15465     15464     15466     15465     15464     15467
     15466     15464     15467     15467     15470     15471     15467     15470     15472
     15467     15470     15473     15468     15467     15469     15468     15467     15470
     15469     15467     15470     15471     15470     15472     15471     15470     15473
     15472     15470     15473     15474     15476     15477     15474     15476     15478
     15474     15476     15479     15475     15474     15476     15476     15479     15480
     15476     15479     15481     15476     15479     15482     15477     15476     15478
     15477     15476     15479     15478     15476     15479     15479     15482     15483
     15479     15482     15484     15479     15482     15485     15480     15479     15481
     15480     15479     15482     15481     15479     15482     15482     15485     15486
     15482     15485     15487     15482     15485     15488     15483     15482     15484
     15483     15482     15485     15484     15482     15485     15485     15488     15489
     15485     15488     15490     15485     15488     15491     15486     15485     15487
     15486     15485     15488     15487     15485     15488     15488     15491     15492
     15488     15491     15493     15488     15491     15494     15489     15488     15490
     15489     15488     15491     15490     15488     15491     15491     15494     15495
     15491     15494     15496     15491     15494     15497     15492     15491     15493
     15492     15491     15494     15493     15491     15494     15494     15497     15498
     15494     15497     15499     15495     15494     15496     15495     15494     15497
     15496     15494     15497     15497     15499     15500     15497     15499     15501
     15498     15497     15499     15499     15501     15502     15499     15501     15503
     15499     15501     15504     15500     15499     15501     15501     15504     15505
     15501     15504     15506     15501     15504     15507     15502     15501     15503
     15502     15501     15504     15503     15501     15504     15504     15507     15508
     15504     15507     15509     15504     15507     15510     15505     15504     15506
     15505     15504     15507     15506     15504     15507     15507     15510     15511
     15507     15510     15512     15507     15510     15513     15508     15507     15509
     15508     15507     15510     15509     15507     15510     15510     15513     15514
     15510     15513     15515     15510     15513     15516     15511     15510     15512
     15511     15510     15513     15512     15510     15513     15513     15516     15517
     15513     15516     15518     15513     15516     15519     15514     15513     15515
     15514     15513     15516     15515     15513     15516     15516     15519     15520
     15516     15519     15521     15516     15519     15522     15517     15516     15518
     15517     15516     15519     15518     15516     15519     15519     15522     15523
     15519     15522     15524     15519     15522     15525     15520     15519     15521
     15520     15519     15522     15521     15519     15522     15523     15522     15524
     15523     15522     15525     15524     15522     15525     15526     15527     15528
     15526     15527     15529     15526     15527     15530     15526     15531     15532
     15526     15531     15533     15526     15531     15534     15526     15535     15536
     15526     15535     15537     15526     15535     15538     15526     15539     15540
     15526     15539     15541     15526     15539     15542     15527     15526     15531
     15527     15526     15535     15527     15526     15539     15528     15527     15529
     15528     15527     15530     15529     15527     15530     15531     15526     15535
     15531     15526     15539     15532     15531     15533     15532     15531     15534
     15533     15531     15534     15535     15526     15539     15536     15535     15537
     15536     15535     15538     15537     15535     15538     15539     15542     15543
     15539     15542     15544     15539     15542     15549     15540     15539     15541
     15540     15539     15542     15541     15539     15542     15542     15549     15545
     15543     15542     15544     15543     15542     15549     15544     15542     15549
     15545     15548     15550     15546     15545     15547     15546     15545     15548
     15546     15545     15549     15547     15545     15548     15547     15545     15549
     15548     15545     15549     15548     15550     15551     15548     15550     15552
     15548     15550     15555     15550     15555     15553     15550     15555     15556
     15550     15555     15557     15551     15550     15552     15551     15550     15555
     15552     15550     15555     15553     15555     15556     15553     15555     15557
     15553     15605     15606     15553     15605     15607     15554     15553     15555
     15554     15553     15605     15555     15553     15605     15555     15557     15558
     15555     15557     15559     15555     15557     15561     15556     15555     15557
     15557     15559     15560     15557     15561     15562     15557     15561     15563
     15558     15557     15559     15558     15557     15561     15559     15557     15561
     15561     15563     15564     15561     15563     15565     15562     15561     15563
     15563     15565     15566     15563     15565     15567     15563     15565     15568
     15564     15563     15565     15565     15568     15569     15565     15568     15570
     15565     15568     15571     15566     15565     15567     15566     15565     15568
     15567     15565     15568     15568     15571     15572     15568     15571     15573
     15568     15571     15574     15569     15568     15570     15569     15568     15571
     15570     15568     15571     15571     15574     15575     15571     15574     15576
     15571     15574     15577     15572     15571     15573     15572     15571     15574
     15573     15571     15574     15574     15577     15578     15574     15577     15579
     15574     15577     15580     15575     15574     15576     15575     15574     15577
     15576     15574     15577     15577     15580     15581     15577     15580     15582
     15577     15580     15583     15578     15577     15579     15578     15577     15580
     15579     15577     15580     15580     15583     15584     15580     15583     15585
     15580     15583     15586     15581     15580     15582     15581     15580     15583
     15582     15580     15583     15583     15586     15587     15583     15586     15588
     15583     15586     15589     15584     15583     15585     15584     15583     15586
     15585     15583     15586     15586     15589     15590     15586     15589     15591
     15586     15589     15592     15587     15586     15588     15587     15586     15589
     15588     15586     15589     15589     15592     15593     15589     15592     15594
     15589     15592     15595     15590     15589     15591     15590     15589     15592
     15591     15589     15592     15592     15595     15596     15592     15595     15597
     15592     15595     15598     15593     15592     15594     15593     15592     15595
     15594     15592     15595     15595     15598     15599     15595     15598     15600
     15595     15598     15601     15596     15595     15597     15596     15595     15598
     15597     15595     15598     15598     15601     15602     15598     15601     15603
     15598     15601     15604     15599     15598     15600     15599     15598     15601
     15600     15598     15601     15602     15601     15603     15602     15601     15604
     15603     15601     15604     15605     15607     15608     15605     15607     15609
     15605     15607     15610     15606     15605     15607     15607     15610     15611
     15607     15610     15612     15607     15610     15613     15608     15607     15609
     15608     15607     15610     15609     15607     15610     15610     15613     15614
     15610     15613     15615     15610     15613     15616     15611     15610     15612
     15611     15610     15613     15612     15610     15613     15613     15616     15617
     15613     15616     15618     15613     15616     15619     15614     15613     15615
     15614     15613     15616     15615     15613     15616     15616     15619     15620
     15616     15619     15621     15616     15619     15622     15617     15616     15618
     15617     15616     15619     15618     15616     15619     15619     15622     15623
     15619     15622     15624     15619     15622     15625     15620     15619     15621
     15620     15619     15622     15621     15619     15622     15622     15625     15626
     15622     15625     15627     15622     15625     15628     15623     15622     15624
     15623     15622     15625     15624     15622     15625     15625     15628     15629
     15625     15628     15630     15626     15625     15627     15626     15625     15628
     15627     15625     15628     15628     15630     15631     15628     15630     15632
     15629     15628     15630     15630     15632     15633     15630     15632     15634
     15630     15632     15635     15631     15630     15632     15632     15635     15636
     15632     15635     15637     15632     15635     15638     15633     15632     15634
     15633     15632     15635     15634     15632     15635     15635     15638     15639
     15635     15638     15640     15635     15638     15641     15636     15635     15637
     15636     15635     15638     15637     15635     15638     15638     15641     15642
     15638     15641     15643     15638     15641     15644     15639     15638     15640
     15639     15638     15641     15640     15638     15641     15641     15644     15645
     15641     15644     15646     15641     15644     15647     15642     15641     15643
     15642     15641     15644     15643     15641     15644     15644     15647     15648
     15644     15647     15649     15644     15647     15650     15645     15644     15646
     15645     15644     15647     15646     15644     15647     15647     15650     15651
     15647     15650     15652     15647     15650     15653     15648     15647     15649
     15648     15647     15650     15649     15647     15650     15650     15653     15654
     15650     15653     15655     15650     15653     15656     15651     15650     15652
     15651     15650     15653     15652     15650     15653     15654     15653     15655
     15654     15653     15656     15655     15653     15656     15657     15658     15659
     15657     15658     15660     15657     15658     15661     15657     15662     15663
     15657     15662     15664     15657     15662     15665     15657     15666     15667
     15657     15666     15668     15657     15666     15669     15657     15670     15671
     15657     15670     15672     15657     15670     15673     15658     15657     15662
     15658     15657     15666     15658     15657     15670     15659     15658     15660
     15659     15658     15661     15660     15658     15661     15662     15657     15666
     15662     15657     15670     15663     15662     15664     15663     15662     15665
     15664     15662     15665     15666     15657     15670     15667     15666     15668
     15667     15666     15669     15668     15666     15669     15670     15673     15674
     15670     15673     15675     15670     15673     15679     15671     15670     15672
     15671     15670     15673     15672     15670     15673     15673     15679     15676
     15674     15673     15675     15674     15673     15679     15675     15673     15679
     15676     15680     15681     15677     15676     15678     15677     15676     15679
     15677     15676     15680     15678     15676     15679     15678     15676     15680
     15679     15676     15680     15680     15681     15682     15680     15681     15683
     15680     15681     15684     15681     15684     15685     15681     15684     15686
     15681     15684     15692     15682     15681     15683     15682     15681     15684
     15683     15681     15684     15684     15686     15687     15684     15692     15693
     15684     15692     15694     15684     15692     15695     15685     15684     15686
     15685     15684     15692     15686     15684     15692     15686     15687     15688
     15686     15687     15689     15687     15689     15690     15687     15689     15691
     15687     15689     15701     15688     15687     15689     15689     15701     15702
     15689     15701     15703     15689     15701     15704     15690     15689     15691
     15690     15689     15701     15691     15689     15701     15692     15695     15696
     15693     15692     15694     15693     15692     15695     15694     15692     15695
     15695     15696     15697     15695     15696     15698     15696     15698     15699
     15696     15698     15700     15696     15698     15746     15697     15696     15698
     15698     15746     15747     15698     15746     15748     15698     15746     15749
     15699     15698     15700     15699     15698     15746     15700     15698     15746
     15701     15704     15705     15701     15704     15706     15701     15704     15707
     15702     15701     15703     15702     15701     15704     15703     15701     15704
     15704     15707     15708     15704     15707     15709     15704     15707     15710
     15705     15704     15706     15705     15704     15707     15706     15704     15707
     15707     15710     15711     15707     15710     15712     15707     15710     15713
     15708     15707     15709     15708     15707     15710     15709     15707     15710
     15710     15713     15714     15710     15713     15715     15710     15713     15716
     15711     15710     15712     15711     15710     15713     15712     15710     15713
     15713     15716     15717     15713     15716     15718     15713     15716     15719
     15714     15713     15715     15714     15713     15716     15715     15713     15716
     15716     15719     15720     15716     15719     15721     15717     15716     15718
     15717     15716     15719     15718     15716     15719     15719     15721     15722
     15719     15721     15723     15720     15719     15721     15721     15723     15724
     15721     15723     15725     15721     15723     15726     15722     15721     15723
     15723     15726     15727     15723     15726     15728     15724     15723     15725
     15724     15723     15726     15725     15723     15726     15726     15728     15729
     15726     15728     15730     15727     15726     15728     15728     15730     15731
     15728     15730     15732     15728     15730     15733     15729     15728     15730
     15730     15733     15734     15730     15733     15735     15730     15733     15736
     15731     15730     15732     15731     15730     15733     15732     15730     15733
     15733     15736     15737     15733     15736     15738     15733     15736     15739
     15734     15733     15735     15734     15733     15736     15735     15733     15736
     15736     15739     15740     15736     15739     15741     15736     15739     15742
     15737     15736     15738     15737     15736     15739     15738     15736     15739
     15739     15742     15743     15739     15742     15744     15739     15742     15745
     15740     15739     15741     15740     15739     15742     15741     15739     15742
     15743     15742     15744     15743     15742     15745     15744     15742     15745
     15746     15749     15750     15746     15749     15751     15746     15749     15752
     15747     15746     15748     15747     15746     15749     15748     15746     15749
     15749     15752     15753     15749     15752     15754     15749     15752     15755
     15750     15749     15751     15750     15749     15752     15751     15749     15752
     15752     15755     15756     15752     15755     15757     15752     15755     15758
     15753     15752     15754     15753     15752     15755     15754     15752     15755
     15755     15758     15759     15755     15758     15760     15755     15758     15761
     15756     15755     15757     15756     15755     15758     15757     15755     15758
     15758     15761     15762     15758     15761     15763     15758     15761     15764
     15759     15758     15760     15759     15758     15761     15760     15758     15761
     15761     15764     15765     15761     15764     15766     15761     15764     15767
     15762     15761     15763     15762     15761     15764     15763     15761     15764
     15764     15767     15768     15764     15767     15769     15764     15767     15770
     15765     15764     15766     15765     15764     15767     15766     15764     15767
     15767     15770     15771     15767     15770     15772     15767     15770     15773
     15768     15767     15769     15768     15767     15770     15769     15767     15770
     15770     15773     15774     15770     15773     15775     15770     15773     15776
     15771     15770     15772     15771     15770     15773     15772     15770     15773
     15773     15776     15777     15773     15776     15778     15773     15776     15779
     15774     15773     15775     15774     15773     15776     15775     15773     15776
     15776     15779     15780     15776     15779     15781     15776     15779     15782
     15777     15776     15778     15777     15776     15779     15778     15776     15779
     15779     15782     15783     15779     15782     15784     15779     15782     15785
     15780     15779     15781     15780     15779     15782     15781     15779     15782
     15782     15785     15786     15782     15785     15787     15782     15785     15788
     15783     15782     15784     15783     15782     15785     15784     15782     15785
     15785     15788     15789     15785     15788     15790     15785     15788     15791
     15786     15785     15787     15786     15785     15788     15787     15785     15788
     15788     15791     15792     15788     15791     15793     15788     15791     15794
     15789     15788     15790     15789     15788     15791     15790     15788     15791
     15792     15791     15793     15792     15791     15794     15793     15791     15794
     15795     15796     15797     15795     15796     15798     15795     15796     15799
     15795     15800     15801     15795     15800     15802     15795     15800     15803
     15795     15804     15805     15795     15804     15806     15795     15804     15807
     15795     15808     15809     15795     15808     15810     15795     15808     15811
     15796     15795     15800     15796     15795     15804     15796     15795     15808
     15797     15796     15798     15797     15796     15799     15798     15796     15799
     15800     15795     15804     15800     15795     15808     15801     15800     15802
     15801     15800     15803     15802     15800     15803     15804     15795     15808
     15805     15804     15806     15805     15804     15807     15806     15804     15807
     15808     15811     15812     15808     15811     15813     15808     15811     15818
     15809     15808     15810     15809     15808     15811     15810     15808     15811
     15811     15818     15814     15812     15811     15813     15812     15811     15818
     15813     15811     15818     15814     15817     15819     15815     15814     15816
     15815     15814     15817     15815     15814     15818     15816     15814     15817
     15816     15814     15818     15817     15814     15818     15817     15819     15820
     15817     15819     15821     15817     15819     15824     15819     15824     15822
     15819     15824     15825     15819     15824     15826     15820     15819     15821
     15820     15819     15824     15821     15819     15824     15822     15824     15825
     15822     15824     15826     15822     15874     15875     15822     15874     15876
     15823     15822     15824     15823     15822     15874     15824     15822     15874
     15824     15826     15827     15824     15826     15828     15824     15826     15830
     15825     15824     15826     15826     15828     15829     15826     15830     15831
     15826     15830     15832     15827     15826     15828     15827     15826     15830
     15828     15826     15830     15830     15832     15833     15830     15832     15834
     15831     15830     15832     15832     15834     15835     15832     15834     15836
     15832     15834     15837     15833     15832     15834     15834     15837     15838
     15834     15837     15839     15834     15837     15840     15835     15834     15836
     15835     15834     15837     15836     15834     15837     15837     15840     15841
     15837     15840     15842     15837     15840     15843     15838     15837     15839
     15838     15837     15840     15839     15837     15840     15840     15843     15844
     15840     15843     15845     15840     15843     15846     15841     15840     15842
     15841     15840     15843     15842     15840     15843     15843     15846     15847
     15843     15846     15848     15843     15846     15849     15844     15843     15845
     15844     15843     15846     15845     15843     15846     15846     15849     15850
     15846     15849     15851     15846     15849     15852     15847     15846     15848
     15847     15846     15849     15848     15846     15849     15849     15852     15853
     15849     15852     15854     15849     15852     15855     15850     15849     15851
     15850     15849     15852     15851     15849     15852     15852     15855     15856
     15852     15855     15857     15852     15855     15858     15853     15852     15854
     15853     15852     15855     15854     15852     15855     15855     15858     15859
     15855     15858     15860     15855     15858     15861     15856     15855     15857
     15856     15855     15858     15857     15855     15858     15858     15861     15862
     15858     15861     15863     15858     15861     15864     15859     15858     15860
     15859     15858     15861     15860     15858     15861     15861     15864     15865
     15861     15864     15866     15861     15864     15867     15862     15861     15863
     15862     15861     15864     15863     15861     15864     15864     15867     15868
     15864     15867     15869     15864     15867     15870     15865     15864     15866
     15865     15864     15867     15866     15864     15867     15867     15870     15871
     15867     15870     15872     15867     15870     15873     15868     15867     15869
     15868     15867     15870     15869     15867     15870     15871     15870     15872
     15871     15870     15873     15872     15870     15873     15874     15876     15877
     15874     15876     15878     15874     15876     15879     15875     15874     15876
     15876     15879     15880     15876     15879     15881     15876     15879     15882
     15877     15876     15878     15877     15876     15879     15878     15876     15879
     15879     15882     15883     15879     15882     15884     15879     15882     15885
     15880     15879     15881     15880     15879     15882     15881     15879     15882
     15882     15885     15886     15882     15885     15887     15882     15885     15888
     15883     15882     15884     15883     15882     15885     15884     15882     15885
     15885     15888     15889     15885     15888     15890     15885     15888     15891
     15886     15885     15887     15886     15885     15888     15887     15885     15888
     15888     15891     15892     15888     15891     15893     15888     15891     15894
     15889     15888     15890     15889     15888     15891     15890     15888     15891
     15891     15894     15895     15891     15894     15896     15891     15894     15897
     15892     15891     15893     15892     15891     15894     15893     15891     15894
     15894     15897     15898     15894     15897     15899     15895     15894     15896
     15895     15894     15897     15896     15894     15897     15897     15899     15900
     15897     15899     15901     15898     15897     15899     15899     15901     15902
     15899     15901     15903     15899     15901     15904     15900     15899     15901
     15901     15904     15905     15901     15904     15906     15901     15904     15907
     15902     15901     15903     15902     15901     15904     15903     15901     15904
     15904     15907     15908     15904     15907     15909     15904     15907     15910
     15905     15904     15906     15905     15904     15907     15906     15904     15907
     15907     15910     15911     15907     15910     15912     15907     15910     15913
     15908     15907     15909     15908     15907     15910     15909     15907     15910
     15910     15913     15914     15910     15913     15915     15910     15913     15916
     15911     15910     15912     15911     15910     15913     15912     15910     15913
     15913     15916     15917     15913     15916     15918     15913     15916     15919
     15914     15913     15915     15914     15913     15916     15915     15913     15916
     15916     15919     15920     15916     15919     15921     15916     15919     15922
     15917     15916     15918     15917     15916     15919     15918     15916     15919
     15919     15922     15923     15919     15922     15924     15919     15922     15925
     15920     15919     15921     15920     15919     15922     15921     15919     15922
     15923     15922     15924     15923     15922     15925     15924     15922     15925
     15926     15927     15928     15926     15927     15929     15926     15927     15930
     15926     15931     15932     15926     15931     15933     15926     15931     15934
     15926     15935     15936     15926     15935     15937     15926     15935     15938
     15926     15939     15940     15926     15939     15941     15926     15939     15942
     15927     15926     15931     15927     15926     15935     15927     15926     15939
     15928     15927     15929     15928     15927     15930     15929     15927     15930
     15931     15926     15935     15931     15926     15939     15932     15931     15933
     15932     15931     15934     15933     15931     15934     15935     15926     15939
     15936     15935     15937     15936     15935     15938     15937     15935     15938
     15939     15942     15943     15939     15942     15944     15939     15942     15949
     15940     15939     15941     15940     15939     15942     15941     15939     15942
     15942     15949     15945     15943     15942     15944     15943     15942     15949
     15944     15942     15949     15945     15948     15950     15946     15945     15947
     15946     15945     15948     15946     15945     15949     15947     15945     15948
     15947     15945     15949     15948     15945     15949     15948     15950     15951
     15948     15950     15952     15948     15950     15955     15950     15955     15953
     15950     15955     15956     15950     15955     15957     15951     15950     15952
     15951     15950     15955     15952     15950     15955     15953     15955     15956
     15953     15955     15957     15953     16005     16006     15953     16005     16007
     15954     15953     15955     15954     15953     16005     15955     15953     16005
     15955     15957     15958     15955     15957     15959     15955     15957     15961
     15956     15955     15957     15957     15959     15960     15957     15961     15962
     15957     15961     15963     15958     15957     15959     15958     15957     15961
     15959     15957     15961     15961     15963     15964     15961     15963     15965
     15962     15961     15963     15963     15965     15966     15963     15965     15967
     15963     15965     15968     15964     15963     15965     15965     15968     15969
     15965     15968     15970     15965     15968     15971     15966     15965     15967
     15966     15965     15968     15967     15965     15968     15968     15971     15972
     15968     15971     15973     15968     15971     15974     15969     15968     15970
     15969     15968     15971     15970     15968     15971     15971     15974     15975
     15971     15974     15976     15971     15974     15977     15972     15971     15973
     15972     15971     15974     15973     15971     15974     15974     15977     15978
     15974     15977     15979     15974     15977     15980     15975     15974     15976
     15975     15974     15977     15976     15974     15977     15977     15980     15981
     15977     15980     15982     15977     15980     15983     15978     15977     15979
     15978     15977     15980     15979     15977     15980     15980     15983     15984
     15980     15983     15985     15980     15983     15986     15981     15980     15982
     15981     15980     15983     15982     15980     15983     15983     15986     15987
     15983     15986     15988     15983     15986     15989     15984     15983     15985
     15984     15983     15986     15985     15983     15986     15986     15989     15990
     15986     15989     15991     15986     15989     15992     15987     15986     15988
     15987     15986     15989     15988     15986     15989     15989     15992     15993
     15989     15992     15994     15989     15992     15995     15990     15989     15991
     15990     15989     15992     15991     15989     15992     15992     15995     15996
     15992     15995     15997     15992     15995     15998     15993     15992     15994
     15993     15992     15995     15994     15992     15995     15995     15998     15999
     15995     15998     16000     15995     15998     16001     15996     15995     15997
     15996     15995     15998     15997     15995     15998     15998     16001     16002
     15998     16001     16003     15998     16001     16004     15999     15998     16000
     15999     15998     16001     16000     15998     16001     16002     16001     16003
     16002     16001     16004     16003     16001     16004     16005     16007     16008
     16005     16007     16009     16005     16007     16010     16006     16005     16007
     16007     16010     16011     16007     16010     16012     16007     16010     16013
     16008     16007     16009     16008     16007     16010     16009     16007     16010
     16010     16013     16014     16010     16013     16015     16010     16013     16016
     16011     16010     16012     16011     16010     16013     16012     16010     16013
     16013     16016     16017     16013     16016     16018     16013     16016     16019
     16014     16013     16015     16014     16013     16016     16015     16013     16016
     16016     16019     16020     16016     16019     16021     16016     16019     16022
     16017     16016     16018     16017     16016     16019     16018     16016     16019
     16019     16022     16023     16019     16022     16024     16019     16022     16025
     16020     16019     16021     16020     16019     16022     16021     16019     16022
     16022     16025     16026     16022     16025     16027     16022     16025     16028
     16023     16022     16024     16023     16022     16025     16024     16022     16025
     16025     16028     16029     16025     16028     16030     16026     16025     16027
     16026     16025     16028     16027     16025     16028     16028     16030     16031
     16028     16030     16032     16029     16028     16030     16030     16032     16033
     16030     16032     16034     16030     16032     16035     16031     16030     16032
     16032     16035     16036     16032     16035     16037     16032     16035     16038
     16033     16032     16034     16033     16032     16035     16034     16032     16035
     16035     16038     16039     16035     16038     16040     16035     16038     16041
     16036     16035     16037     16036     16035     16038     16037     16035     16038
     16038     16041     16042     16038     16041     16043     16038     16041     16044
     16039     16038     16040     16039     16038     16041     16040     16038     16041
     16041     16044     16045     16041     16044     16046     16041     16044     16047
     16042     16041     16043     16042     16041     16044     16043     16041     16044
     16044     16047     16048     16044     16047     16049     16044     16047     16050
     16045     16044     16046     16045     16044     16047     16046     16044     16047
     16047     16050     16051     16047     16050     16052     16047     16050     16053
     16048     16047     16049     16048     16047     16050     16049     16047     16050
     16050     16053     16054     16050     16053     16055     16050     16053     16056
     16051     16050     16052     16051     16050     16053     16052     16050     16053
     16054     16053     16055     16054     16053     16056     16055     16053     16056
     16057     16061     16062     16057     16061     16063     16057     16061     16066
     16058     16057     16059     16058     16057     16060     16058     16057     16061
     16059     16057     16060     16059     16057     16061     16060     16057     16061
     16061     16063     16064     16061     16063     16065     16061     16066     16067
     16061     16066     16068     16061     16066     16072     16062     16061     16063
     16062     16061     16066     16063     16061     16066     16064     16063     16065
     16066     16072     16069     16067     16066     16068     16067     16066     16072
     16068     16066     16072     16069     16073     16074     16070     16069     16071
     16070     16069     16072     16070     16069     16073     16071     16069     16072
     16071     16069     16073     16072     16069     16073     16073     16074     16075
     16073     16074     16076     16073     16074     16077     16074     16077     16078
     16074     16077     16079     16074     16077     16085     16075     16074     16076
     16075     16074     16077     16076     16074     16077     16077     16079     16080
     16077     16085     16086     16077     16085     16087     16077     16085     16088
     16078     16077     16079     16078     16077     16085     16079     16077     16085
     16079     16080     16081     16079     16080     16082     16080     16082     16083
     16080     16082     16084     16080     16082     16094     16081     16080     16082
     16082     16094     16095     16082     16094     16096     16082     16094     16097
     16083     16082     16084     16083     16082     16094     16084     16082     16094
     16085     16088     16089     16086     16085     16087     16086     16085     16088
     16087     16085     16088     16088     16089     16090     16088     16089     16091
     16089     16091     16092     16089     16091     16093     16089     16091     16141
     16090     16089     16091     16091     16141     16142     16091     16141     16143
     16091     16141     16144     16092     16091     16093     16092     16091     16141
     16093     16091     16141     16094     16097     16098     16094     16097     16099
     16094     16097     16100     16095     16094     16096     16095     16094     16097
     16096     16094     16097     16097     16100     16101     16097     16100     16102
     16098     16097     16099     16098     16097     16100     16099     16097     16100
     16100     16102     16103     16100     16102     16104     16101     16100     16102
     16102     16104     16105     16102     16104     16106     16102     16104     16107
     16103     16102     16104     16104     16107     16108     16104     16107     16109
     16105     16104     16106     16105     16104     16107     16106     16104     16107
     16107     16109     16110     16107     16109     16111     16108     16107     16109
     16109     16111     16112     16109     16111     16113     16109     16111     16114
     16110     16109     16111     16111     16114     16115     16111     16114     16116
     16112     16111     16113     16112     16111     16114     16113     16111     16114
     16114     16116     16117     16114     16116     16118     16115     16114     16116
     16116     16118     16119     16116     16118     16120     16116     16118     16121
     16117     16116     16118     16118     16121     16122     16118     16121     16123
     16119     16118     16120     16119     16118     16121     16120     16118     16121
     16121     16123     16124     16121     16123     16125     16122     16121     16123
     16123     16125     16126     16123     16125     16127     16123     16125     16128
     16124     16123     16125     16125     16128     16129     16125     16128     16130
     16125     16128     16131     16126     16125     16127     16126     16125     16128
     16127     16125     16128     16128     16131     16132     16128     16131     16133
     16128     16131     16134     16129     16128     16130     16129     16128     16131
     16130     16128     16131     16131     16134     16135     16131     16134     16136
     16131     16134     16137     16132     16131     16133     16132     16131     16134
     16133     16131     16134     16134     16137     16138     16134     16137     16139
     16134     16137     16140     16135     16134     16136     16135     16134     16137
     16136     16134     16137     16138     16137     16139     16138     16137     16140
     16139     16137     16140     16141     16144     16145     16141     16144     16146
     16141     16144     16147     16142     16141     16143     16142     16141     16144
     16143     16141     16144     16144     16147     16148     16144     16147     16149
     16144     16147     16150     16145     16144     16146     16145     16144     16147
     16146     16144     16147     16147     16150     16151     16147     16150     16152
     16147     16150     16153     16148     16147     16149     16148     16147     16150
     16149     16147     16150     16150     16153     16154     16150     16153     16155
     16150     16153     16156     16151     16150     16152     16151     16150     16153
     16152     16150     16153     16153     16156     16157     16153     16156     16158
     16153     16156     16159     16154     16153     16155     16154     16153     16156
     16155     16153     16156     16156     16159     16160     16156     16159     16161
     16156     16159     16162     16157     16156     16158     16157     16156     16159
     16158     16156     16159     16159     16162     16163     16159     16162     16164
     16159     16162     16165     16160     16159     16161     16160     16159     16162
     16161     16159     16162     16162     16165     16166     16162     16165     16167
     16162     16165     16168     16163     16162     16164     16163     16162     16165
     16164     16162     16165     16165     16168     16169     16165     16168     16170
     16165     16168     16171     16166     16165     16167     16166     16165     16168
     16167     16165     16168     16168     16171     16172     16168     16171     16173
     16168     16171     16174     16169     16168     16170     16169     16168     16171
     16170     16168     16171     16171     16174     16175     16171     16174     16176
     16171     16174     16177     16172     16171     16173     16172     16171     16174
     16173     16171     16174     16174     16177     16178     16174     16177     16179
     16174     16177     16180     16175     16174     16176     16175     16174     16177
     16176     16174     16177     16177     16180     16181     16177     16180     16182
     16177     16180     16183     16178     16177     16179     16178     16177     16180
     16179     16177     16180     16180     16183     16184     16180     16183     16185
     16180     16183     16186     16181     16180     16182     16181     16180     16183
     16182     16180     16183     16183     16186     16187     16183     16186     16188
     16183     16186     16189     16184     16183     16185     16184     16183     16186
     16185     16183     16186     16187     16186     16188     16187     16186     16189
     16188     16186     16189     16190     16192     16193     16190     16194     16195
     16190     16194     16196     16190     16194     16197     16190     16236     16233
     16190     16236     16237     16190     16236     16238     16191     16190     16192
     16191     16190     16194     16191     16190     16236     16192     16190     16194
     16192     16190     16236     16194     16190     16236     16194     16197     16198
     16194     16197     16228     16195     16194     16196     16195     16194     16197
     16196     16194     16197     16197     16198     16199     16197     16198     16200
     16197     16228     16226     16197     16228     16229     16197     16228     16233
     16198     16197     16228     16198     16200     16201     16198     16200     16202
     16198     16200     16203     16199     16198     16200     16200     16203     16204
     16200     16203     16205     16200     16203     16226     16201     16200     16202
     16201     16200     16203     16202     16200     16203     16203     16205     16206
     16203     16205     16207     16203     16205     16215     16203     16226     16223
     16203     16226     16227     16203     16226     16228     16204     16203     16205
     16204     16203     16226     16205     16203     16226     16205     16207     16208
     16205     16207     16209     16205     16207     16210     16205     16215     16213
     16205     16215     16216     16205     16215     16220     16206     16205     16207
     16206     16205     16215     16207     16205     16215     16207     16210     16211
     16207     16210     16212     16207     16210     16213     16208     16207     16209
     16208     16207     16210     16209     16207     16210     16210     16213     16214
     16210     16213     16215     16210     16213     16239     16211     16210     16212
     16211     16210     16213     16212     16210     16213     16213     16215     16216
     16213     16215     16220     16213     16239     16240     16213     16239     16241
     16213     16239     16245     16214     16213     16215     16214     16213     16239
     16215     16213     16239     16215     16216     16217     16215     16216     16218
     16215     16216     16219     16215     16220     16221     16215     16220     16222
     16215     16220     16223     16216     16215     16220     16217     16216     16218
     16217     16216     16219     16218     16216     16219     16220     16223     16224
     16220     16223     16225     16220     16223     16226     16221     16220     16222
     16221     16220     16223     16222     16220     16223     16223     16226     16227
     16223     16226     16228     16224     16223     16225     16224     16223     16226
     16225     16223     16226     16226     16228     16229     16226     16228     16233
     16227     16226     16228     16228     16229     16230     16228     16229     16231
     16228     16229     16232     16228     16233     16234     16228     16233     16235
     16228     16233     16236     16229     16228     16233     16230     16229     16231
     16230     16229     16232     16231     16229     16232     16233     16236     16237
     16233     16236     16238     16234     16233     16235     16234     16233     16236
     16235     16233     16236     16237     16236     16238     16239     16241     16242
     16239     16241     16243     16239     16241     16244     16239     16245     16246
     16239     16245     16247     16239     16245     16248     16240     16239     16241
     16240     16239     16245     16241     16239     16245     16242     16241     16243
     16242     16241     16244     16243     16241     16244     16245     16248     16249
     16245     16248     16250     16245     16248     16251     16246     16245     16247
     16246     16245     16248     16247     16245     16248     16248     16251     16252
     16248     16251     16253     16248     16251     16254     16249     16248     16250
     16249     16248     16251     16250     16248     16251     16251     16254     16255
     16251     16254     16256     16251     16254     16260     16252     16251     16253
     16252     16251     16254     16253     16251     16254     16254     16256     16257
     16254     16256     16258     16254     16256     16259     16254     16260     16261
     16254     16260     16262     16254     16260     16263     16255     16254     16256
     16255     16254     16260     16256     16254     16260     16257     16256     16258
     16257     16256     16259     16258     16256     16259     16261     16260     16262
     16261     16260     16263     16262     16260     16263     16264     16265     16266
     16264     16265     16267     16264     16265     16268     16264     16269     16270
     16264     16269     16271     16264     16269     16272     16264     16273     16274
     16264     16273     16275     16264     16273     16276     16264     16277     16278
     16264     16277     16279     16264     16277     16280     16265     16264     16269
     16265     16264     16273     16265     16264     16277     16266     16265     16267
     16266     16265     16268     16267     16265     16268     16269     16264     16273
     16269     16264     16277     16270     16269     16271     16270     16269     16272
     16271     16269     16272     16273     16264     16277     16274     16273     16275
     16274     16273     16276     16275     16273     16276     16277     16280     16281
     16277     16280     16282     16277     16280     16287     16278     16277     16279
     16278     16277     16280     16279     16277     16280     16280     16287     16283
     16281     16280     16282     16281     16280     16287     16282     16280     16287
     16283     16286     16288     16284     16283     16285     16284     16283     16286
     16284     16283     16287     16285     16283     16286     16285     16283     16287
     16286     16283     16287     16286     16288     16289     16286     16288     16290
     16286     16288     16293     16288     16293     16291     16288     16293     16294
     16288     16293     16295     16289     16288     16290     16289     16288     16293
     16290     16288     16293     16291     16293     16294     16291     16293     16295
     16291     16343     16344     16291     16343     16345     16292     16291     16293
     16292     16291     16343     16293     16291     16343     16293     16295     16296
     16293     16295     16297     16293     16295     16299     16294     16293     16295
     16295     16297     16298     16295     16299     16300     16295     16299     16301
     16296     16295     16297     16296     16295     16299     16297     16295     16299
     16299     16301     16302     16299     16301     16303     16300     16299     16301
     16301     16303     16304     16301     16303     16305     16301     16303     16306
     16302     16301     16303     16303     16306     16307     16303     16306     16308
     16303     16306     16309     16304     16303     16305     16304     16303     16306
     16305     16303     16306     16306     16309     16310     16306     16309     16311
     16306     16309     16312     16307     16306     16308     16307     16306     16309
     16308     16306     16309     16309     16312     16313     16309     16312     16314
     16309     16312     16315     16310     16309     16311     16310     16309     16312
     16311     16309     16312     16312     16315     16316     16312     16315     16317
     16312     16315     16318     16313     16312     16314     16313     16312     16315
     16314     16312     16315     16315     16318     16319     16315     16318     16320
     16315     16318     16321     16316     16315     16317     16316     16315     16318
     16317     16315     16318     16318     16321     16322     16318     16321     16323
     16318     16321     16324     16319     16318     16320     16319     16318     16321
     16320     16318     16321     16321     16324     16325     16321     16324     16326
     16321     16324     16327     16322     16321     16323     16322     16321     16324
     16323     16321     16324     16324     16327     16328     16324     16327     16329
     16324     16327     16330     16325     16324     16326     16325     16324     16327
     16326     16324     16327     16327     16330     16331     16327     16330     16332
     16327     16330     16333     16328     16327     16329     16328     16327     16330
     16329     16327     16330     16330     16333     16334     16330     16333     16335
     16330     16333     16336     16331     16330     16332     16331     16330     16333
     16332     16330     16333     16333     16336     16337     16333     16336     16338
     16333     16336     16339     16334     16333     16335     16334     16333     16336
     16335     16333     16336     16336     16339     16340     16336     16339     16341
     16336     16339     16342     16337     16336     16338     16337     16336     16339
     16338     16336     16339     16340     16339     16341     16340     16339     16342
     16341     16339     16342     16343     16345     16346     16343     16345     16347
     16343     16345     16348     16344     16343     16345     16345     16348     16349
     16345     16348     16350     16345     16348     16351     16346     16345     16347
     16346     16345     16348     16347     16345     16348     16348     16351     16352
     16348     16351     16353     16348     16351     16354     16349     16348     16350
     16349     16348     16351     16350     16348     16351     16351     16354     16355
     16351     16354     16356     16351     16354     16357     16352     16351     16353
     16352     16351     16354     16353     16351     16354     16354     16357     16358
     16354     16357     16359     16354     16357     16360     16355     16354     16356
     16355     16354     16357     16356     16354     16357     16357     16360     16361
     16357     16360     16362     16357     16360     16363     16358     16357     16359
     16358     16357     16360     16359     16357     16360     16360     16363     16364
     16360     16363     16365     16360     16363     16366     16361     16360     16362
     16361     16360     16363     16362     16360     16363     16363     16366     16367
     16363     16366     16368     16364     16363     16365     16364     16363     16366
     16365     16363     16366     16366     16368     16369     16366     16368     16370
     16367     16366     16368     16368     16370     16371     16368     16370     16372
     16368     16370     16373     16369     16368     16370     16370     16373     16374
     16370     16373     16375     16370     16373     16376     16371     16370     16372
     16371     16370     16373     16372     16370     16373     16373     16376     16377
     16373     16376     16378     16373     16376     16379     16374     16373     16375
     16374     16373     16376     16375     16373     16376     16376     16379     16380
     16376     16379     16381     16376     16379     16382     16377     16376     16378
     16377     16376     16379     16378     16376     16379     16379     16382     16383
     16379     16382     16384     16379     16382     16385     16380     16379     16381
     16380     16379     16382     16381     16379     16382     16382     16385     16386
     16382     16385     16387     16382     16385     16388     16383     16382     16384
     16383     16382     16385     16384     16382     16385     16385     16388     16389
     16385     16388     16390     16385     16388     16391     16386     16385     16387
     16386     16385     16388     16387     16385     16388     16388     16391     16392
     16388     16391     16393     16388     16391     16394     16389     16388     16390
     16389     16388     16391     16390     16388     16391     16392     16391     16393
     16392     16391     16394     16393     16391     16394     16395     16399     16400
     16395     16399     16401     16395     16399     16402     16396     16395     16397
     16396     16395     16398     16396     16395     16399     16397     16395     16398
     16397     16395     16399     16398     16395     16399     16399     16402     16403
     16399     16402     16404     16399     16402     16408     16400     16399     16401
     16400     16399     16402     16401     16399     16402     16402     16408     16405
     16403     16402     16404     16403     16402     16408     16404     16402     16408
     16405     16409     16410     16406     16405     16407     16406     16405     16408
     16406     16405     16409     16407     16405     16408     16407     16405     16409
     16408     16405     16409     16409     16410     16411     16409     16410     16412
     16409     16410     16413     16410     16413     16414     16410     16413     16415
     16410     16413     16421     16411     16410     16412     16411     16410     16413
     16412     16410     16413     16413     16415     16416     16413     16421     16422
     16413     16421     16423     16413     16421     16424     16414     16413     16415
     16414     16413     16421     16415     16413     16421     16415     16416     16417
     16415     16416     16418     16416     16418     16419     16416     16418     16420
     16416     16418     16430     16417     16416     16418     16418     16430     16431
     16418     16430     16432     16418     16430     16433     16419     16418     16420
     16419     16418     16430     16420     16418     16430     16421     16424     16425
     16422     16421     16423     16422     16421     16424     16423     16421     16424
     16424     16425     16426     16424     16425     16427     16425     16427     16428
     16425     16427     16429     16425     16427     16477     16426     16425     16427
     16427     16477     16478     16427     16477     16479     16427     16477     16480
     16428     16427     16429     16428     16427     16477     16429     16427     16477
     16430     16433     16434     16430     16433     16435     16430     16433     16436
     16431     16430     16432     16431     16430     16433     16432     16430     16433
     16433     16436     16437     16433     16436     16438     16434     16433     16435
     16434     16433     16436     16435     16433     16436     16436     16438     16439
     16436     16438     16440     16437     16436     16438     16438     16440     16441
     16438     16440     16442     16438     16440     16443     16439     16438     16440
     16440     16443     16444     16440     16443     16445     16441     16440     16442
     16441     16440     16443     16442     16440     16443     16443     16445     16446
     16443     16445     16447     16444     16443     16445     16445     16447     16448
     16445     16447     16449     16445     16447     16450     16446     16445     16447
     16447     16450     16451     16447     16450     16452     16448     16447     16449
     16448     16447     16450     16449     16447     16450     16450     16452     16453
     16450     16452     16454     16451     16450     16452     16452     16454     16455
     16452     16454     16456     16452     16454     16457     16453     16452     16454
     16454     16457     16458     16454     16457     16459     16455     16454     16456
     16455     16454     16457     16456     16454     16457     16457     16459     16460
     16457     16459     16461     16458     16457     16459     16459     16461     16462
     16459     16461     16463     16459     16461     16464     16460     16459     16461
     16461     16464     16465     16461     16464     16466     16461     16464     16467
     16462     16461     16463     16462     16461     16464     16463     16461     16464
     16464     16467     16468     16464     16467     16469     16464     16467     16470
     16465     16464     16466     16465     16464     16467     16466     16464     16467
     16467     16470     16471     16467     16470     16472     16467     16470     16473
     16468     16467     16469     16468     16467     16470     16469     16467     16470
     16470     16473     16474     16470     16473     16475     16470     16473     16476
     16471     16470     16472     16471     16470     16473     16472     16470     16473
     16474     16473     16475     16474     16473     16476     16475     16473     16476
     16477     16480     16481     16477     16480     16482     16477     16480     16483
     16478     16477     16479     16478     16477     16480     16479     16477     16480
     16480     16483     16484     16480     16483     16485     16480     16483     16486
     16481     16480     16482     16481     16480     16483     16482     16480     16483
     16483     16486     16487     16483     16486     16488     16483     16486     16489
     16484     16483     16485     16484     16483     16486     16485     16483     16486
     16486     16489     16490     16486     16489     16491     16486     16489     16492
     16487     16486     16488     16487     16486     16489     16488     16486     16489
     16489     16492     16493     16489     16492     16494     16489     16492     16495
     16490     16489     16491     16490     16489     16492     16491     16489     16492
     16492     16495     16496     16492     16495     16497     16492     16495     16498
     16493     16492     16494     16493     16492     16495     16494     16492     16495
     16495     16498     16499     16495     16498     16500     16495     16498     16501
     16496     16495     16497     16496     16495     16498     16497     16495     16498
     16498     16501     16502     16498     16501     16503     16498     16501     16504
     16499     16498     16500     16499     16498     16501     16500     16498     16501
     16501     16504     16505     16501     16504     16506     16501     16504     16507
     16502     16501     16503     16502     16501     16504     16503     16501     16504
     16504     16507     16508     16504     16507     16509     16504     16507     16510
     16505     16504     16506     16505     16504     16507     16506     16504     16507
     16507     16510     16511     16507     16510     16512     16507     16510     16513
     16508     16507     16509     16508     16507     16510     16509     16507     16510
     16510     16513     16514     16510     16513     16515     16510     16513     16516
     16511     16510     16512     16511     16510     16513     16512     16510     16513
     16513     16516     16517     16513     16516     16518     16513     16516     16519
     16514     16513     16515     16514     16513     16516     16515     16513     16516
     16516     16519     16520     16516     16519     16521     16516     16519     16522
     16517     16516     16518     16517     16516     16519     16518     16516     16519
     16519     16522     16523     16519     16522     16524     16519     16522     16525
     16520     16519     16521     16520     16519     16522     16521     16519     16522
     16523     16522     16524     16523     16522     16525     16524     16522     16525
     16526     16527     16528     16526     16527     16529     16526     16527     16530
     16526     16531     16532     16526     16531     16533     16526     16531     16534
     16526     16535     16536     16526     16535     16537     16526     16535     16538
     16526     16539     16540     16526     16539     16541     16526     16539     16542
     16527     16526     16531     16527     16526     16535     16527     16526     16539
     16528     16527     16529     16528     16527     16530     16529     16527     16530
     16531     16526     16535     16531     16526     16539     16532     16531     16533
     16532     16531     16534     16533     16531     16534     16535     16526     16539
     16536     16535     16537     16536     16535     16538     16537     16535     16538
     16539     16542     16543     16539     16542     16544     16539     16542     16548
     16540     16539     16541     16540     16539     16542     16541     16539     16542
     16542     16548     16545     16543     16542     16544     16543     16542     16548
     16544     16542     16548     16545     16549     16550     16546     16545     16547
     16546     16545     16548     16546     16545     16549     16547     16545     16548
     16547     16545     16549     16548     16545     16549     16549     16550     16551
     16549     16550     16552     16549     16550     16553     16550     16553     16554
     16550     16553     16555     16550     16553     16561     16551     16550     16552
     16551     16550     16553     16552     16550     16553     16553     16555     16556
     16553     16561     16562     16553     16561     16563     16553     16561     16564
     16554     16553     16555     16554     16553     16561     16555     16553     16561
     16555     16556     16557     16555     16556     16558     16556     16558     16559
     16556     16558     16560     16556     16558     16570     16557     16556     16558
     16558     16570     16571     16558     16570     16572     16558     16570     16573
     16559     16558     16560     16559     16558     16570     16560     16558     16570
     16561     16564     16565     16562     16561     16563     16562     16561     16564
     16563     16561     16564     16564     16565     16566     16564     16565     16567
     16565     16567     16568     16565     16567     16569     16565     16567     16615
     16566     16565     16567     16567     16615     16616     16567     16615     16617
     16567     16615     16618     16568     16567     16569     16568     16567     16615
     16569     16567     16615     16570     16573     16574     16570     16573     16575
     16570     16573     16576     16571     16570     16572     16571     16570     16573
     16572     16570     16573     16573     16576     16577     16573     16576     16578
     16573     16576     16579     16574     16573     16575     16574     16573     16576
     16575     16573     16576     16576     16579     16580     16576     16579     16581
     16576     16579     16582     16577     16576     16578     16577     16576     16579
     16578     16576     16579     16579     16582     16583     16579     16582     16584
     16579     16582     16585     16580     16579     16581     16580     16579     16582
     16581     16579     16582     16582     16585     16586     16582     16585     16587
     16582     16585     16588     16583     16582     16584     16583     16582     16585
     16584     16582     16585     16585     16588     16589     16585     16588     16590
     16586     16585     16587     16586     16585     16588     16587     16585     16588
     16588     16590     16591     16588     16590     16592     16589     16588     16590
     16590     16592     16593     16590     16592     16594     16590     16592     16595
     16591     16590     16592     16592     16595     16596     16592     16595     16597
     16593     16592     16594     16593     16592     16595     16594     16592     16595
     16595     16597     16598     16595     16597     16599     16596     16595     16597
     16597     16599     16600     16597     16599     16601     16597     16599     16602
     16598     16597     16599     16599     16602     16603     16599     16602     16604
     16599     16602     16605     16600     16599     16601     16600     16599     16602
     16601     16599     16602     16602     16605     16606     16602     16605     16607
     16602     16605     16608     16603     16602     16604     16603     16602     16605
     16604     16602     16605     16605     16608     16609     16605     16608     16610
     16605     16608     16611     16606     16605     16607     16606     16605     16608
     16607     16605     16608     16608     16611     16612     16608     16611     16613
     16608     16611     16614     16609     16608     16610     16609     16608     16611
     16610     16608     16611     16612     16611     16613     16612     16611     16614
     16613     16611     16614     16615     16618     16619     16615     16618     16620
     16615     16618     16621     16616     16615     16617     16616     16615     16618
     16617     16615     16618     16618     16621     16622     16618     16621     16623
     16618     16621     16624     16619     16618     16620     16619     16618     16621
     16620     16618     16621     16621     16624     16625     16621     16624     16626
     16621     16624     16627     16622     16621     16623     16622     16621     16624
     16623     16621     16624     16624     16627     16628     16624     16627     16629
     16624     16627     16630     16625     16624     16626     16625     16624     16627
     16626     16624     16627     16627     16630     16631     16627     16630     16632
     16627     16630     16633     16628     16627     16629     16628     16627     16630
     16629     16627     16630     16630     16633     16634     16630     16633     16635
     16630     16633     16636     16631     16630     16632     16631     16630     16633
     16632     16630     16633     16633     16636     16637     16633     16636     16638
     16633     16636     16639     16634     16633     16635     16634     16633     16636
     16635     16633     16636     16636     16639     16640     16636     16639     16641
     16636     16639     16642     16637     16636     16638     16637     16636     16639
     16638     16636     16639     16639     16642     16643     16639     16642     16644
     16639     16642     16645     16640     16639     16641     16640     16639     16642
     16641     16639     16642     16642     16645     16646     16642     16645     16647
     16642     16645     16648     16643     16642     16644     16643     16642     16645
     16644     16642     16645     16645     16648     16649     16645     16648     16650
     16645     16648     16651     16646     16645     16647     16646     16645     16648
     16647     16645     16648     16648     16651     16652     16648     16651     16653
     16648     16651     16654     16649     16648     16650     16649     16648     16651
     16650     16648     16651     16651     16654     16655     16651     16654     16656
     16651     16654     16657     16652     16651     16653     16652     16651     16654
     16653     16651     16654     16654     16657     16658     16654     16657     16659
     16654     16657     16660     16655     16654     16656     16655     16654     16657
     16656     16654     16657     16657     16660     16661     16657     16660     16662
     16657     16660     16663     16658     16657     16659     16658     16657     16660
     16659     16657     16660     16661     16660     16662     16661     16660     16663
     16662     16660     16663     16664     16665     16666     16664     16665     16667
     16664     16665     16668     16664     16669     16670     16664     16669     16671
     16664     16669     16672     16664     16673     16674     16664     16673     16675
     16664     16673     16676     16664     16677     16678     16664     16677     16679
     16664     16677     16680     16665     16664     16669     16665     16664     16673
     16665     16664     16677     16666     16665     16667     16666     16665     16668
     16667     16665     16668     16669     16664     16673     16669     16664     16677
     16670     16669     16671     16670     16669     16672     16671     16669     16672
     16673     16664     16677     16674     16673     16675     16674     16673     16676
     16675     16673     16676     16677     16680     16681     16677     16680     16682
     16677     16680     16687     16678     16677     16679     16678     16677     16680
     16679     16677     16680     16680     16687     16683     16681     16680     16682
     16681     16680     16687     16682     16680     16687     16683     16686     16688
     16684     16683     16685     16684     16683     16686     16684     16683     16687
     16685     16683     16686     16685     16683     16687     16686     16683     16687
     16686     16688     16689     16686     16688     16690     16686     16688     16693
     16688     16693     16691     16688     16693     16694     16688     16693     16695
     16689     16688     16690     16689     16688     16693     16690     16688     16693
     16691     16693     16694     16691     16693     16695     16691     16743     16744
     16691     16743     16745     16692     16691     16693     16692     16691     16743
     16693     16691     16743     16693     16695     16696     16693     16695     16697
     16693     16695     16699     16694     16693     16695     16695     16697     16698
     16695     16699     16700     16695     16699     16701     16696     16695     16697
     16696     16695     16699     16697     16695     16699     16699     16701     16702
     16699     16701     16703     16700     16699     16701     16701     16703     16704
     16701     16703     16705     16701     16703     16706     16702     16701     16703
     16703     16706     16707     16703     16706     16708     16703     16706     16709
     16704     16703     16705     16704     16703     16706     16705     16703     16706
     16706     16709     16710     16706     16709     16711     16706     16709     16712
     16707     16706     16708     16707     16706     16709     16708     16706     16709
     16709     16712     16713     16709     16712     16714     16709     16712     16715
     16710     16709     16711     16710     16709     16712     16711     16709     16712
     16712     16715     16716     16712     16715     16717     16712     16715     16718
     16713     16712     16714     16713     16712     16715     16714     16712     16715
     16715     16718     16719     16715     16718     16720     16715     16718     16721
     16716     16715     16717     16716     16715     16718     16717     16715     16718
     16718     16721     16722     16718     16721     16723     16718     16721     16724
     16719     16718     16720     16719     16718     16721     16720     16718     16721
     16721     16724     16725     16721     16724     16726     16721     16724     16727
     16722     16721     16723     16722     16721     16724     16723     16721     16724
     16724     16727     16728     16724     16727     16729     16724     16727     16730
     16725     16724     16726     16725     16724     16727     16726     16724     16727
     16727     16730     16731     16727     16730     16732     16727     16730     16733
     16728     16727     16729     16728     16727     16730     16729     16727     16730
     16730     16733     16734     16730     16733     16735     16730     16733     16736
     16731     16730     16732     16731     16730     16733     16732     16730     16733
     16733     16736     16737     16733     16736     16738     16733     16736     16739
     16734     16733     16735     16734     16733     16736     16735     16733     16736
     16736     16739     16740     16736     16739     16741     16736     16739     16742
     16737     16736     16738     16737     16736     16739     16738     16736     16739
     16740     16739     16741     16740     16739     16742     16741     16739     16742
     16743     16745     16746     16743     16745     16747     16743     16745     16748
     16744     16743     16745     16745     16748     16749     16745     16748     16750
     16745     16748     16751     16746     16745     16747     16746     16745     16748
     16747     16745     16748     16748     16751     16752     16748     16751     16753
     16748     16751     16754     16749     16748     16750     16749     16748     16751
     16750     16748     16751     16751     16754     16755     16751     16754     16756
     16751     16754     16757     16752     16751     16753     16752     16751     16754
     16753     16751     16754     16754     16757     16758     16754     16757     16759
     16754     16757     16760     16755     16754     16756     16755     16754     16757
     16756     16754     16757     16757     16760     16761     16757     16760     16762
     16757     16760     16763     16758     16757     16759     16758     16757     16760
     16759     16757     16760     16760     16763     16764     16760     16763     16765
     16760     16763     16766     16761     16760     16762     16761     16760     16763
     16762     16760     16763     16763     16766     16767     16763     16766     16768
     16764     16763     16765     16764     16763     16766     16765     16763     16766
     16766     16768     16769     16766     16768     16770     16767     16766     16768
     16768     16770     16771     16768     16770     16772     16768     16770     16773
     16769     16768     16770     16770     16773     16774     16770     16773     16775
     16770     16773     16776     16771     16770     16772     16771     16770     16773
     16772     16770     16773     16773     16776     16777     16773     16776     16778
     16773     16776     16779     16774     16773     16775     16774     16773     16776
     16775     16773     16776     16776     16779     16780     16776     16779     16781
     16776     16779     16782     16777     16776     16778     16777     16776     16779
     16778     16776     16779     16779     16782     16783     16779     16782     16784
     16779     16782     16785     16780     16779     16781     16780     16779     16782
     16781     16779     16782     16782     16785     16786     16782     16785     16787
     16782     16785     16788     16783     16782     16784     16783     16782     16785
     16784     16782     16785     16785     16788     16789     16785     16788     16790
     16785     16788     16791     16786     16785     16787     16786     16785     16788
     16787     16785     16788     16788     16791     16792     16788     16791     16793
     16788     16791     16794     16789     16788     16790     16789     16788     16791
     16790     16788     16791     16792     16791     16793     16792     16791     16794
     16793     16791     16794     16795     16797     16798     16795     16799     16800
     16795     16799     16801     16795     16799     16802     16795     16841     16838
     16795     16841     16842     16795     16841     16843     16796     16795     16797
     16796     16795     16799     16796     16795     16841     16797     16795     16799
     16797     16795     16841     16799     16795     16841     16799     16802     16803
     16799     16802     16833     16800     16799     16801     16800     16799     16802
     16801     16799     16802     16802     16803     16804     16802     16803     16805
     16802     16833     16831     16802     16833     16834     16802     16833     16838
     16803     16802     16833     16803     16805     16806     16803     16805     16807
     16803     16805     16808     16804     16803     16805     16805     16808     16809
     16805     16808     16810     16805     16808     16831     16806     16805     16807
     16806     16805     16808     16807     16805     16808     16808     16810     16811
     16808     16810     16812     16808     16810     16820     16808     16831     16828
     16808     16831     16832     16808     16831     16833     16809     16808     16810
     16809     16808     16831     16810     16808     16831     16810     16812     16813
     16810     16812     16814     16810     16812     16815     16810     16820     16818
     16810     16820     16821     16810     16820     16825     16811     16810     16812
     16811     16810     16820     16812     16810     16820     16812     16815     16816
     16812     16815     16817     16812     16815     16818     16813     16812     16814
     16813     16812     16815     16814     16812     16815     16815     16818     16819
     16815     16818     16820     16815     16818     16844     16816     16815     16817
     16816     16815     16818     16817     16815     16818     16818     16820     16821
     16818     16820     16825     16818     16844     16845     16818     16844     16846
     16818     16844     16850     16819     16818     16820     16819     16818     16844
     16820     16818     16844     16820     16821     16822     16820     16821     16823
     16820     16821     16824     16820     16825     16826     16820     16825     16827
     16820     16825     16828     16821     16820     16825     16822     16821     16823
     16822     16821     16824     16823     16821     16824     16825     16828     16829
     16825     16828     16830     16825     16828     16831     16826     16825     16827
     16826     16825     16828     16827     16825     16828     16828     16831     16832
     16828     16831     16833     16829     16828     16830     16829     16828     16831
     16830     16828     16831     16831     16833     16834     16831     16833     16838
     16832     16831     16833     16833     16834     16835     16833     16834     16836
     16833     16834     16837     16833     16838     16839     16833     16838     16840
     16833     16838     16841     16834     16833     16838     16835     16834     16836
     16835     16834     16837     16836     16834     16837     16838     16841     16842
     16838     16841     16843     16839     16838     16840     16839     16838     16841
     16840     16838     16841     16842     16841     16843     16844     16846     16847
     16844     16846     16848     16844     16846     16849     16844     16850     16851
     16844     16850     16852     16844     16850     16853     16845     16844     16846
     16845     16844     16850     16846     16844     16850     16847     16846     16848
     16847     16846     16849     16848     16846     16849     16850     16853     16854
     16850     16853     16855     16850     16853     16856     16851     16850     16852
     16851     16850     16853     16852     16850     16853     16853     16856     16857
     16853     16856     16858     16853     16856     16859     16854     16853     16855
     16854     16853     16856     16855     16853     16856     16856     16859     16860
     16856     16859     16861     16856     16859     16865     16857     16856     16858
     16857     16856     16859     16858     16856     16859     16859     16861     16862
     16859     16861     16863     16859     16861     16864     16859     16865     16866
     16859     16865     16867     16859     16865     16868     16860     16859     16861
     16860     16859     16865     16861     16859     16865     16862     16861     16863
     16862     16861     16864     16863     16861     16864     16866     16865     16867
     16866     16865     16868     16867     16865     16868     16869     16871     16872
     16869     16873     16874     16869     16873     16875     16869     16873     16876
     16869     16915     16912     16869     16915     16916     16869     16915     16917
     16870     16869     16871     16870     16869     16873     16870     16869     16915
     16871     16869     16873     16871     16869     16915     16873     16869     16915
     16873     16876     16877     16873     16876     16907     16874     16873     16875
     16874     16873     16876     16875     16873     16876     16876     16877     16878
     16876     16877     16879     16876     16907     16905     16876     16907     16908
     16876     16907     16912     16877     16876     16907     16877     16879     16880
     16877     16879     16881     16877     16879     16882     16878     16877     16879
     16879     16882     16883     16879     16882     16884     16879     16882     16905
     16880     16879     16881     16880     16879     16882     16881     16879     16882
     16882     16884     16885     16882     16884     16886     16882     16884     16894
     16882     16905     16902     16882     16905     16906     16882     16905     16907
     16883     16882     16884     16883     16882     16905     16884     16882     16905
     16884     16886     16887     16884     16886     16888     16884     16886     16889
     16884     16894     16892     16884     16894     16895     16884     16894     16899
     16885     16884     16886     16885     16884     16894     16886     16884     16894
     16886     16889     16890     16886     16889     16891     16886     16889     16892
     16887     16886     16888     16887     16886     16889     16888     16886     16889
     16889     16892     16893     16889     16892     16894     16889     16892     16918
     16890     16889     16891     16890     16889     16892     16891     16889     16892
     16892     16894     16895     16892     16894     16899     16892     16918     16919
     16892     16918     16920     16892     16918     16924     16893     16892     16894
     16893     16892     16918     16894     16892     16918     16894     16895     16896
     16894     16895     16897     16894     16895     16898     16894     16899     16900
     16894     16899     16901     16894     16899     16902     16895     16894     16899
     16896     16895     16897     16896     16895     16898     16897     16895     16898
     16899     16902     16903     16899     16902     16904     16899     16902     16905
     16900     16899     16901     16900     16899     16902     16901     16899     16902
     16902     16905     16906     16902     16905     16907     16903     16902     16904
     16903     16902     16905     16904     16902     16905     16905     16907     16908
     16905     16907     16912     16906     16905     16907     16907     16908     16909
     16907     16908     16910     16907     16908     16911     16907     16912     16913
     16907     16912     16914     16907     16912     16915     16908     16907     16912
     16909     16908     16910     16909     16908     16911     16910     16908     16911
     16912     16915     16916     16912     16915     16917     16913     16912     16914
     16913     16912     16915     16914     16912     16915     16916     16915     16917
     16918     16920     16921     16918     16920     16922     16918     16920     16923
     16918     16924     16925     16918     16924     16926     16918     16924     16927
     16919     16918     16920     16919     16918     16924     16920     16918     16924
     16921     16920     16922     16921     16920     16923     16922     16920     16923
     16924     16927     16928     16924     16927     16929     16924     16927     16930
     16925     16924     16926     16925     16924     16927     16926     16924     16927
     16927     16930     16931     16927     16930     16932     16927     16930     16933
     16928     16927     16929     16928     16927     16930     16929     16927     16930
     16930     16933     16934     16930     16933     16935     16930     16933     16939
     16931     16930     16932     16931     16930     16933     16932     16930     16933
     16933     16935     16936     16933     16935     16937     16933     16935     16938
     16933     16939     16940     16933     16939     16941     16933     16939     16942
     16934     16933     16935     16934     16933     16939     16935     16933     16939
     16936     16935     16937     16936     16935     16938     16937     16935     16938
     16940     16939     16941     16940     16939     16942     16941     16939     16942
     16943     16945     16946     16943     16947     16948     16943     16947     16949
     16943     16947     16950     16943     16989     16986     16943     16989     16990
     16943     16989     16991     16944     16943     16945     16944     16943     16947
     16944     16943     16989     16945     16943     16947     16945     16943     16989
     16947     16943     16989     16947     16950     16951     16947     16950     16981
     16948     16947     16949     16948     16947     16950     16949     16947     16950
     16950     16951     16952     16950     16951     16953     16950     16981     16979
     16950     16981     16982     16950     16981     16986     16951     16950     16981
     16951     16953     16954     16951     16953     16955     16951     16953     16956
     16952     16951     16953     16953     16956     16957     16953     16956     16958
     16953     16956     16979     16954     16953     16955     16954     16953     16956
     16955     16953     16956     16956     16958     16959     16956     16958     16960
     16956     16958     16968     16956     16979     16976     16956     16979     16980
     16956     16979     16981     16957     16956     16958     16957     16956     16979
     16958     16956     16979     16958     16960     16961     16958     16960     16962
     16958     16960     16963     16958     16968     16966     16958     16968     16969
     16958     16968     16973     16959     16958     16960     16959     16958     16968
     16960     16958     16968     16960     16963     16964     16960     16963     16965
     16960     16963     16966     16961     16960     16962     16961     16960     16963
     16962     16960     16963     16963     16966     16967     16963     16966     16968
     16963     16966     16992     16964     16963     16965     16964     16963     16966
     16965     16963     16966     16966     16968     16969     16966     16968     16973
     16966     16992     16993     16966     16992     16994     16966     16992     16998
     16967     16966     16968     16967     16966     16992     16968     16966     16992
     16968     16969     16970     16968     16969     16971     16968     16969     16972
     16968     16973     16974     16968     16973     16975     16968     16973     16976
     16969     16968     16973     16970     16969     16971     16970     16969     16972
     16971     16969     16972     16973     16976     16977     16973     16976     16978
     16973     16976     16979     16974     16973     16975     16974     16973     16976
     16975     16973     16976     16976     16979     16980     16976     16979     16981
     16977     16976     16978     16977     16976     16979     16978     16976     16979
     16979     16981     16982     16979     16981     16986     16980     16979     16981
     16981     16982     16983     16981     16982     16984     16981     16982     16985
     16981     16986     16987     16981     16986     16988     16981     16986     16989
     16982     16981     16986     16983     16982     16984     16983     16982     16985
     16984     16982     16985     16986     16989     16990     16986     16989     16991
     16987     16986     16988     16987     16986     16989     16988     16986     16989
     16990     16989     16991     16992     16994     16995     16992     16994     16996
     16992     16994     16997     16992     16998     16999     16992     16998     17000
     16992     16998     17001     16993     16992     16994     16993     16992     16998
     16994     16992     16998     16995     16994     16996     16995     16994     16997
     16996     16994     16997     16998     17001     17002     16998     17001     17003
     16998     17001     17004     16999     16998     17000     16999     16998     17001
     17000     16998     17001     17001     17004     17005     17001     17004     17006
     17001     17004     17007     17002     17001     17003     17002     17001     17004
     17003     17001     17004     17004     17007     17008     17004     17007     17009
     17004     17007     17013     17005     17004     17006     17005     17004     17007
     17006     17004     17007     17007     17009     17010     17007     17009     17011
     17007     17009     17012     17007     17013     17014     17007     17013     17015
     17007     17013     17016     17008     17007     17009     17008     17007     17013
     17009     17007     17013     17010     17009     17011     17010     17009     17012
     17011     17009     17012     17014     17013     17015     17014     17013     17016
     17015     17013     17016     17017     17019     17020     17017     17021     17022
     17017     17021     17023     17017     17021     17024     17017     17063     17060
     17017     17063     17064     17017     17063     17065     17018     17017     17019
     17018     17017     17021     17018     17017     17063     17019     17017     17021
     17019     17017     17063     17021     17017     17063     17021     17024     17025
     17021     17024     17055     17022     17021     17023     17022     17021     17024
     17023     17021     17024     17024     17025     17026     17024     17025     17027
     17024     17055     17053     17024     17055     17056     17024     17055     17060
     17025     17024     17055     17025     17027     17028     17025     17027     17029
     17025     17027     17030     17026     17025     17027     17027     17030     17031
     17027     17030     17032     17027     17030     17053     17028     17027     17029
     17028     17027     17030     17029     17027     17030     17030     17032     17033
     17030     17032     17034     17030     17032     17042     17030     17053     17050
     17030     17053     17054     17030     17053     17055     17031     17030     17032
     17031     17030     17053     17032     17030     17053     17032     17034     17035
     17032     17034     17036     17032     17034     17037     17032     17042     17040
     17032     17042     17043     17032     17042     17047     17033     17032     17034
     17033     17032     17042     17034     17032     17042     17034     17037     17038
     17034     17037     17039     17034     17037     17040     17035     17034     17036
     17035     17034     17037     17036     17034     17037     17037     17040     17041
     17037     17040     17042     17037     17040     17066     17038     17037     17039
     17038     17037     17040     17039     17037     17040     17040     17042     17043
     17040     17042     17047     17040     17066     17067     17040     17066     17068
     17040     17066     17072     17041     17040     17042     17041     17040     17066
     17042     17040     17066     17042     17043     17044     17042     17043     17045
     17042     17043     17046     17042     17047     17048     17042     17047     17049
     17042     17047     17050     17043     17042     17047     17044     17043     17045
     17044     17043     17046     17045     17043     17046     17047     17050     17051
     17047     17050     17052     17047     17050     17053     17048     17047     17049
     17048     17047     17050     17049     17047     17050     17050     17053     17054
     17050     17053     17055     17051     17050     17052     17051     17050     17053
     17052     17050     17053     17053     17055     17056     17053     17055     17060
     17054     17053     17055     17055     17056     17057     17055     17056     17058
     17055     17056     17059     17055     17060     17061     17055     17060     17062
     17055     17060     17063     17056     17055     17060     17057     17056     17058
     17057     17056     17059     17058     17056     17059     17060     17063     17064
     17060     17063     17065     17061     17060     17062     17061     17060     17063
     17062     17060     17063     17064     17063     17065     17066     17068     17069
     17066     17068     17070     17066     17068     17071     17066     17072     17073
     17066     17072     17074     17066     17072     17075     17067     17066     17068
     17067     17066     17072     17068     17066     17072     17069     17068     17070
     17069     17068     17071     17070     17068     17071     17072     17075     17076
     17072     17075     17077     17072     17075     17078     17073     17072     17074
     17073     17072     17075     17074     17072     17075     17075     17078     17079
     17075     17078     17080     17075     17078     17081     17076     17075     17077
     17076     17075     17078     17077     17075     17078     17078     17081     17082
     17078     17081     17083     17078     17081     17087     17079     17078     17080
     17079     17078     17081     17080     17078     17081     17081     17083     17084
     17081     17083     17085     17081     17083     17086     17081     17087     17088
     17081     17087     17089     17081     17087     17090     17082     17081     17083
     17082     17081     17087     17083     17081     17087     17084     17083     17085
     17084     17083     17086     17085     17083     17086     17088     17087     17089
     17088     17087     17090     17089     17087     17090     17091     17095     17096
     17091     17095     17097     17091     17095     17098     17092     17091     17093
     17092     17091     17094     17092     17091     17095     17093     17091     17094
     17093     17091     17095     17094     17091     17095     17095     17098     17099
     17095     17098     17100     17095     17098     17104     17096     17095     17097
     17096     17095     17098     17097     17095     17098     17098     17104     17101
     17099     17098     17100     17099     17098     17104     17100     17098     17104
     17101     17105     17106     17102     17101     17103     17102     17101     17104
     17102     17101     17105     17103     17101     17104     17103     17101     17105
     17104     17101     17105     17105     17106     17107     17105     17106     17108
     17105     17106     17109     17106     17109     17110     17106     17109     17111
     17106     17109     17117     17107     17106     17108     17107     17106     17109
     17108     17106     17109     17109     17111     17112     17109     17117     17118
     17109     17117     17119     17109     17117     17120     17110     17109     17111
     17110     17109     17117     17111     17109     17117     17111     17112     17113
     17111     17112     17114     17112     17114     17115     17112     17114     17116
     17112     17114     17126     17113     17112     17114     17114     17126     17127
     17114     17126     17128     17114     17126     17129     17115     17114     17116
     17115     17114     17126     17116     17114     17126     17117     17120     17121
     17118     17117     17119     17118     17117     17120     17119     17117     17120
     17120     17121     17122     17120     17121     17123     17121     17123     17124
     17121     17123     17125     17121     17123     17173     17122     17121     17123
     17123     17173     17174     17123     17173     17175     17123     17173     17176
     17124     17123     17125     17124     17123     17173     17125     17123     17173
     17126     17129     17130     17126     17129     17131     17126     17129     17132
     17127     17126     17128     17127     17126     17129     17128     17126     17129
     17129     17132     17133     17129     17132     17134     17130     17129     17131
     17130     17129     17132     17131     17129     17132     17132     17134     17135
     17132     17134     17136     17133     17132     17134     17134     17136     17137
     17134     17136     17138     17134     17136     17139     17135     17134     17136
     17136     17139     17140     17136     17139     17141     17137     17136     17138
     17137     17136     17139     17138     17136     17139     17139     17141     17142
     17139     17141     17143     17140     17139     17141     17141     17143     17144
     17141     17143     17145     17141     17143     17146     17142     17141     17143
     17143     17146     17147     17143     17146     17148     17144     17143     17145
     17144     17143     17146     17145     17143     17146     17146     17148     17149
     17146     17148     17150     17147     17146     17148     17148     17150     17151
     17148     17150     17152     17148     17150     17153     17149     17148     17150
     17150     17153     17154     17150     17153     17155     17151     17150     17152
     17151     17150     17153     17152     17150     17153     17153     17155     17156
     17153     17155     17157     17154     17153     17155     17155     17157     17158
     17155     17157     17159     17155     17157     17160     17156     17155     17157
     17157     17160     17161     17157     17160     17162     17157     17160     17163
     17158     17157     17159     17158     17157     17160     17159     17157     17160
     17160     17163     17164     17160     17163     17165     17160     17163     17166
     17161     17160     17162     17161     17160     17163     17162     17160     17163
     17163     17166     17167     17163     17166     17168     17163     17166     17169
     17164     17163     17165     17164     17163     17166     17165     17163     17166
     17166     17169     17170     17166     17169     17171     17166     17169     17172
     17167     17166     17168     17167     17166     17169     17168     17166     17169
     17170     17169     17171     17170     17169     17172     17171     17169     17172
     17173     17176     17177     17173     17176     17178     17173     17176     17179
     17174     17173     17175     17174     17173     17176     17175     17173     17176
     17176     17179     17180     17176     17179     17181     17176     17179     17182
     17177     17176     17178     17177     17176     17179     17178     17176     17179
     17179     17182     17183     17179     17182     17184     17179     17182     17185
     17180     17179     17181     17180     17179     17182     17181     17179     17182
     17182     17185     17186     17182     17185     17187     17182     17185     17188
     17183     17182     17184     17183     17182     17185     17184     17182     17185
     17185     17188     17189     17185     17188     17190     17185     17188     17191
     17186     17185     17187     17186     17185     17188     17187     17185     17188
     17188     17191     17192     17188     17191     17193     17188     17191     17194
     17189     17188     17190     17189     17188     17191     17190     17188     17191
     17191     17194     17195     17191     17194     17196     17191     17194     17197
     17192     17191     17193     17192     17191     17194     17193     17191     17194
     17194     17197     17198     17194     17197     17199     17194     17197     17200
     17195     17194     17196     17195     17194     17197     17196     17194     17197
     17197     17200     17201     17197     17200     17202     17197     17200     17203
     17198     17197     17199     17198     17197     17200     17199     17197     17200
     17200     17203     17204     17200     17203     17205     17200     17203     17206
     17201     17200     17202     17201     17200     17203     17202     17200     17203
     17203     17206     17207     17203     17206     17208     17203     17206     17209
     17204     17203     17205     17204     17203     17206     17205     17203     17206
     17206     17209     17210     17206     17209     17211     17206     17209     17212
     17207     17206     17208     17207     17206     17209     17208     17206     17209
     17209     17212     17213     17209     17212     17214     17209     17212     17215
     17210     17209     17211     17210     17209     17212     17211     17209     17212
     17212     17215     17216     17212     17215     17217     17212     17215     17218
     17213     17212     17214     17213     17212     17215     17214     17212     17215
     17215     17218     17219     17215     17218     17220     17215     17218     17221
     17216     17215     17217     17216     17215     17218     17217     17215     17218
     17219     17218     17220     17219     17218     17221     17220     17218     17221
     17222     17224     17225     17222     17226     17227     17222     17226     17228
     17222     17226     17229     17222     17268     17265     17222     17268     17269
     17222     17268     17270     17223     17222     17224     17223     17222     17226
     17223     17222     17268     17224     17222     17226     17224     17222     17268
     17226     17222     17268     17226     17229     17230     17226     17229     17260
     17227     17226     17228     17227     17226     17229     17228     17226     17229
     17229     17230     17231     17229     17230     17232     17229     17260     17258
     17229     17260     17261     17229     17260     17265     17230     17229     17260
     17230     17232     17233     17230     17232     17234     17230     17232     17235
     17231     17230     17232     17232     17235     17236     17232     17235     17237
     17232     17235     17258     17233     17232     17234     17233     17232     17235
     17234     17232     17235     17235     17237     17238     17235     17237     17239
     17235     17237     17247     17235     17258     17255     17235     17258     17259
     17235     17258     17260     17236     17235     17237     17236     17235     17258
     17237     17235     17258     17237     17239     17240     17237     17239     17241
     17237     17239     17242     17237     17247     17245     17237     17247     17248
     17237     17247     17252     17238     17237     17239     17238     17237     17247
     17239     17237     17247     17239     17242     17243     17239     17242     17244
     17239     17242     17245     17240     17239     17241     17240     17239     17242
     17241     17239     17242     17242     17245     17246     17242     17245     17247
     17242     17245     17271     17243     17242     17244     17243     17242     17245
     17244     17242     17245     17245     17247     17248     17245     17247     17252
     17245     17271     17272     17245     17271     17273     17245     17271     17277
     17246     17245     17247     17246     17245     17271     17247     17245     17271
     17247     17248     17249     17247     17248     17250     17247     17248     17251
     17247     17252     17253     17247     17252     17254     17247     17252     17255
     17248     17247     17252     17249     17248     17250     17249     17248     17251
     17250     17248     17251     17252     17255     17256     17252     17255     17257
     17252     17255     17258     17253     17252     17254     17253     17252     17255
     17254     17252     17255     17255     17258     17259     17255     17258     17260
     17256     17255     17257     17256     17255     17258     17257     17255     17258
     17258     17260     17261     17258     17260     17265     17259     17258     17260
     17260     17261     17262     17260     17261     17263     17260     17261     17264
     17260     17265     17266     17260     17265     17267     17260     17265     17268
     17261     17260     17265     17262     17261     17263     17262     17261     17264
     17263     17261     17264     17265     17268     17269     17265     17268     17270
     17266     17265     17267     17266     17265     17268     17267     17265     17268
     17269     17268     17270     17271     17273     17274     17271     17273     17275
     17271     17273     17276     17271     17277     17278     17271     17277     17279
     17271     17277     17280     17272     17271     17273     17272     17271     17277
     17273     17271     17277     17274     17273     17275     17274     17273     17276
     17275     17273     17276     17277     17280     17281     17277     17280     17282
     17277     17280     17283     17278     17277     17279     17278     17277     17280
     17279     17277     17280     17280     17283     17284     17280     17283     17285
     17280     17283     17286     17281     17280     17282     17281     17280     17283
     17282     17280     17283     17283     17286     17287     17283     17286     17288
     17283     17286     17292     17284     17283     17285     17284     17283     17286
     17285     17283     17286     17286     17288     17289     17286     17288     17290
     17286     17288     17291     17286     17292     17293     17286     17292     17294
     17286     17292     17295     17287     17286     17288     17287     17286     17292
     17288     17286     17292     17289     17288     17290     17289     17288     17291
     17290     17288     17291     17293     17292     17294     17293     17292     17295
     17294     17292     17295     17296     17300     17301     17296     17300     17302
     17296     17300     17303     17297     17296     17298     17297     17296     17299
     17297     17296     17300     17298     17296     17299     17298     17296     17300
     17299     17296     17300     17300     17303     17304     17300     17303     17305
     17300     17303     17309     17301     17300     17302     17301     17300     17303
     17302     17300     17303     17303     17309     17306     17304     17303     17305
     17304     17303     17309     17305     17303     17309     17306     17310     17311
     17307     17306     17308     17307     17306     17309     17307     17306     17310
     17308     17306     17309     17308     17306     17310     17309     17306     17310
     17310     17311     17312     17310     17311     17313     17310     17311     17314
     17311     17314     17315     17311     17314     17316     17311     17314     17322
     17312     17311     17313     17312     17311     17314     17313     17311     17314
     17314     17316     17317     17314     17322     17323     17314     17322     17324
     17314     17322     17325     17315     17314     17316     17315     17314     17322
     17316     17314     17322     17316     17317     17318     17316     17317     17319
     17317     17319     17320     17317     17319     17321     17317     17319     17331
     17318     17317     17319     17319     17331     17332     17319     17331     17333
     17319     17331     17334     17320     17319     17321     17320     17319     17331
     17321     17319     17331     17322     17325     17326     17323     17322     17324
     17323     17322     17325     17324     17322     17325     17325     17326     17327
     17325     17326     17328     17326     17328     17329     17326     17328     17330
     17326     17328     17378     17327     17326     17328     17328     17378     17379
     17328     17378     17380     17328     17378     17381     17329     17328     17330
     17329     17328     17378     17330     17328     17378     17331     17334     17335
     17331     17334     17336     17331     17334     17337     17332     17331     17333
     17332     17331     17334     17333     17331     17334     17334     17337     17338
     17334     17337     17339     17334     17337     17340     17335     17334     17336
     17335     17334     17337     17336     17334     17337     17337     17340     17341
     17337     17340     17342     17337     17340     17343     17338     17337     17339
     17338     17337     17340     17339     17337     17340     17340     17343     17344
     17340     17343     17345     17340     17343     17346     17341     17340     17342
     17341     17340     17343     17342     17340     17343     17343     17346     17347
     17343     17346     17348     17343     17346     17349     17344     17343     17345
     17344     17343     17346     17345     17343     17346     17346     17349     17350
     17346     17349     17351     17347     17346     17348     17347     17346     17349
     17348     17346     17349     17349     17351     17352     17349     17351     17353
     17350     17349     17351     17351     17353     17354     17351     17353     17355
     17351     17353     17356     17352     17351     17353     17353     17356     17357
     17353     17356     17358     17353     17356     17359     17354     17353     17355
     17354     17353     17356     17355     17353     17356     17356     17359     17360
     17356     17359     17361     17356     17359     17362     17357     17356     17358
     17357     17356     17359     17358     17356     17359     17359     17362     17363
     17359     17362     17364     17359     17362     17365     17360     17359     17361
     17360     17359     17362     17361     17359     17362     17362     17365     17366
     17362     17365     17367     17362     17365     17368     17363     17362     17364
     17363     17362     17365     17364     17362     17365     17365     17368     17369
     17365     17368     17370     17365     17368     17371     17366     17365     17367
     17366     17365     17368     17367     17365     17368     17368     17371     17372
     17368     17371     17373     17368     17371     17374     17369     17368     17370
     17369     17368     17371     17370     17368     17371     17371     17374     17375
     17371     17374     17376     17371     17374     17377     17372     17371     17373
     17372     17371     17374     17373     17371     17374     17375     17374     17376
     17375     17374     17377     17376     17374     17377     17378     17381     17382
     17378     17381     17383     17378     17381     17384     17379     17378     17380
     17379     17378     17381     17380     17378     17381     17381     17384     17385
     17381     17384     17386     17381     17384     17387     17382     17381     17383
     17382     17381     17384     17383     17381     17384     17384     17387     17388
     17384     17387     17389     17384     17387     17390     17385     17384     17386
     17385     17384     17387     17386     17384     17387     17387     17390     17391
     17387     17390     17392     17387     17390     17393     17388     17387     17389
     17388     17387     17390     17389     17387     17390     17390     17393     17394
     17390     17393     17395     17390     17393     17396     17391     17390     17392
     17391     17390     17393     17392     17390     17393     17393     17396     17397
     17393     17396     17398     17393     17396     17399     17394     17393     17395
     17394     17393     17396     17395     17393     17396     17396     17399     17400
     17396     17399     17401     17396     17399     17402     17397     17396     17398
     17397     17396     17399     17398     17396     17399     17399     17402     17403
     17399     17402     17404     17399     17402     17405     17400     17399     17401
     17400     17399     17402     17401     17399     17402     17402     17405     17406
     17402     17405     17407     17402     17405     17408     17403     17402     17404
     17403     17402     17405     17404     17402     17405     17405     17408     17409
     17405     17408     17410     17405     17408     17411     17406     17405     17407
     17406     17405     17408     17407     17405     17408     17408     17411     17412
     17408     17411     17413     17408     17411     17414     17409     17408     17410
     17409     17408     17411     17410     17408     17411     17411     17414     17415
     17411     17414     17416     17411     17414     17417     17412     17411     17413
     17412     17411     17414     17413     17411     17414     17414     17417     17418
     17414     17417     17419     17414     17417     17420     17415     17414     17416
     17415     17414     17417     17416     17414     17417     17417     17420     17421
     17417     17420     17422     17417     17420     17423     17418     17417     17419
     17418     17417     17420     17419     17417     17420     17420     17423     17424
     17420     17423     17425     17420     17423     17426     17421     17420     17422
     17421     17420     17423     17422     17420     17423     17424     17423     17425
     17424     17423     17426     17425     17423     17426     17427     17428     17429
     17427     17428     17430     17427     17428     17443     17427     17431     17432
     17427     17431     17433     17427     17431     17434     17427     17435     17436
     17427     17435     17437     17427     17435     17438     17427     17439     17440
     17427     17439     17441     17427     17439     17442     17428     17427     17431
     17428     17427     17435     17428     17427     17439     17428     17443     17444
     17428     17443     17445     17428     17443     17449     17429     17428     17430
     17429     17428     17443     17430     17428     17443     17431     17427     17435
     17431     17427     17439     17432     17431     17433     17432     17431     17434
     17433     17431     17434     17435     17427     17439     17436     17435     17437
     17436     17435     17438     17437     17435     17438     17440     17439     17441
     17440     17439     17442     17441     17439     17442     17443     17449     17446
     17444     17443     17445     17444     17443     17449     17445     17443     17449
     17446     17450     17451     17447     17446     17448     17447     17446     17449
     17447     17446     17450     17448     17446     17449     17448     17446     17450
     17449     17446     17450     17450     17451     17452     17450     17451     17453
     17450     17451     17454     17451     17454     17455     17451     17454     17456
     17451     17454     17462     17452     17451     17453     17452     17451     17454
     17453     17451     17454     17454     17456     17457     17454     17462     17463
     17454     17462     17464     17454     17462     17465     17455     17454     17456
     17455     17454     17462     17456     17454     17462     17456     17457     17458
     17456     17457     17459     17457     17459     17460     17457     17459     17461
     17457     17459     17471     17458     17457     17459     17459     17471     17472
     17459     17471     17473     17459     17471     17474     17460     17459     17461
     17460     17459     17471     17461     17459     17471     17462     17465     17466
     17463     17462     17464     17463     17462     17465     17464     17462     17465
     17465     17466     17467     17465     17466     17468     17466     17468     17469
     17466     17468     17470     17466     17468     17518     17467     17466     17468
     17468     17518     17519     17468     17518     17520     17468     17518     17521
     17469     17468     17470     17469     17468     17518     17470     17468     17518
     17471     17474     17475     17471     17474     17476     17471     17474     17477
     17472     17471     17473     17472     17471     17474     17473     17471     17474
     17474     17477     17478     17474     17477     17479     17474     17477     17480
     17475     17474     17476     17475     17474     17477     17476     17474     17477
     17477     17480     17481     17477     17480     17482     17477     17480     17483
     17478     17477     17479     17478     17477     17480     17479     17477     17480
     17480     17483     17484     17480     17483     17485     17480     17483     17486
     17481     17480     17482     17481     17480     17483     17482     17480     17483
     17483     17486     17487     17483     17486     17488     17483     17486     17489
     17484     17483     17485     17484     17483     17486     17485     17483     17486
     17486     17489     17490     17486     17489     17491     17487     17486     17488
     17487     17486     17489     17488     17486     17489     17489     17491     17492
     17489     17491     17493     17490     17489     17491     17491     17493     17494
     17491     17493     17495     17491     17493     17496     17492     17491     17493
     17493     17496     17497     17493     17496     17498     17493     17496     17499
     17494     17493     17495     17494     17493     17496     17495     17493     17496
     17496     17499     17500     17496     17499     17501     17496     17499     17502
     17497     17496     17498     17497     17496     17499     17498     17496     17499
     17499     17502     17503     17499     17502     17504     17499     17502     17505
     17500     17499     17501     17500     17499     17502     17501     17499     17502
     17502     17505     17506     17502     17505     17507     17502     17505     17508
     17503     17502     17504     17503     17502     17505     17504     17502     17505
     17505     17508     17509     17505     17508     17510     17505     17508     17511
     17506     17505     17507     17506     17505     17508     17507     17505     17508
     17508     17511     17512     17508     17511     17513     17508     17511     17514
     17509     17508     17510     17509     17508     17511     17510     17508     17511
     17511     17514     17515     17511     17514     17516     17511     17514     17517
     17512     17511     17513     17512     17511     17514     17513     17511     17514
     17515     17514     17516     17515     17514     17517     17516     17514     17517
     17518     17521     17522     17518     17521     17523     17518     17521     17524
     17519     17518     17520     17519     17518     17521     17520     17518     17521
     17521     17524     17525     17521     17524     17526     17521     17524     17527
     17522     17521     17523     17522     17521     17524     17523     17521     17524
     17524     17527     17528     17524     17527     17529     17524     17527     17530
     17525     17524     17526     17525     17524     17527     17526     17524     17527
     17527     17530     17531     17527     17530     17532     17527     17530     17533
     17528     17527     17529     17528     17527     17530     17529     17527     17530
     17530     17533     17534     17530     17533     17535     17530     17533     17536
     17531     17530     17532     17531     17530     17533     17532     17530     17533
     17533     17536     17537     17533     17536     17538     17533     17536     17539
     17534     17533     17535     17534     17533     17536     17535     17533     17536
     17536     17539     17540     17536     17539     17541     17536     17539     17542
     17537     17536     17538     17537     17536     17539     17538     17536     17539
     17539     17542     17543     17539     17542     17544     17539     17542     17545
     17540     17539     17541     17540     17539     17542     17541     17539     17542
     17542     17545     17546     17542     17545     17547     17542     17545     17548
     17543     17542     17544     17543     17542     17545     17544     17542     17545
     17545     17548     17549     17545     17548     17550     17545     17548     17551
     17546     17545     17547     17546     17545     17548     17547     17545     17548
     17548     17551     17552     17548     17551     17553     17548     17551     17554
     17549     17548     17550     17549     17548     17551     17550     17548     17551
     17551     17554     17555     17551     17554     17556     17551     17554     17557
     17552     17551     17553     17552     17551     17554     17553     17551     17554
     17554     17557     17558     17554     17557     17559     17554     17557     17560
     17555     17554     17556     17555     17554     17557     17556     17554     17557
     17558     17557     17559     17558     17557     17560     17559     17557     17560
     17561     17565     17566     17561     17565     17567     17561     17565     17568
     17562     17561     17563     17562     17561     17564     17562     17561     17565
     17563     17561     17564     17563     17561     17565     17564     17561     17565
     17565     17568     17569     17565     17568     17570     17565     17568     17574
     17566     17565     17567     17566     17565     17568     17567     17565     17568
     17568     17574     17571     17569     17568     17570     17569     17568     17574
     17570     17568     17574     17571     17575     17576     17572     17571     17573
     17572     17571     17574     17572     17571     17575     17573     17571     17574
     17573     17571     17575     17574     17571     17575     17575     17576     17577
     17575     17576     17578     17575     17576     17579     17576     17579     17580
     17576     17579     17581     17576     17579     17587     17577     17576     17578
     17577     17576     17579     17578     17576     17579     17579     17581     17582
     17579     17587     17588     17579     17587     17589     17579     17587     17590
     17580     17579     17581     17580     17579     17587     17581     17579     17587
     17581     17582     17583     17581     17582     17584     17582     17584     17585
     17582     17584     17586     17582     17584     17596     17583     17582     17584
     17584     17596     17597     17584     17596     17598     17584     17596     17599
     17585     17584     17586     17585     17584     17596     17586     17584     17596
     17587     17590     17591     17588     17587     17589     17588     17587     17590
     17589     17587     17590     17590     17591     17592     17590     17591     17593
     17591     17593     17594     17591     17593     17595     17591     17593     17643
     17592     17591     17593     17593     17643     17644     17593     17643     17645
     17593     17643     17646     17594     17593     17595     17594     17593     17643
     17595     17593     17643     17596     17599     17600     17596     17599     17601
     17596     17599     17602     17597     17596     17598     17597     17596     17599
     17598     17596     17599     17599     17602     17603     17599     17602     17604
     17600     17599     17601     17600     17599     17602     17601     17599     17602
     17602     17604     17605     17602     17604     17606     17603     17602     17604
     17604     17606     17607     17604     17606     17608     17604     17606     17609
     17605     17604     17606     17606     17609     17610     17606     17609     17611
     17607     17606     17608     17607     17606     17609     17608     17606     17609
     17609     17611     17612     17609     17611     17613     17610     17609     17611
     17611     17613     17614     17611     17613     17615     17611     17613     17616
     17612     17611     17613     17613     17616     17617     17613     17616     17618
     17614     17613     17615     17614     17613     17616     17615     17613     17616
     17616     17618     17619     17616     17618     17620     17617     17616     17618
     17618     17620     17621     17618     17620     17622     17618     17620     17623
     17619     17618     17620     17620     17623     17624     17620     17623     17625
     17621     17620     17622     17621     17620     17623     17622     17620     17623
     17623     17625     17626     17623     17625     17627     17624     17623     17625
     17625     17627     17628     17625     17627     17629     17625     17627     17630
     17626     17625     17627     17627     17630     17631     17627     17630     17632
     17627     17630     17633     17628     17627     17629     17628     17627     17630
     17629     17627     17630     17630     17633     17634     17630     17633     17635
     17630     17633     17636     17631     17630     17632     17631     17630     17633
     17632     17630     17633     17633     17636     17637     17633     17636     17638
     17633     17636     17639     17634     17633     17635     17634     17633     17636
     17635     17633     17636     17636     17639     17640     17636     17639     17641
     17636     17639     17642     17637     17636     17638     17637     17636     17639
     17638     17636     17639     17640     17639     17641     17640     17639     17642
     17641     17639     17642     17643     17646     17647     17643     17646     17648
     17643     17646     17649     17644     17643     17645     17644     17643     17646
     17645     17643     17646     17646     17649     17650     17646     17649     17651
     17646     17649     17652     17647     17646     17648     17647     17646     17649
     17648     17646     17649     17649     17652     17653     17649     17652     17654
     17649     17652     17655     17650     17649     17651     17650     17649     17652
     17651     17649     17652     17652     17655     17656     17652     17655     17657
     17652     17655     17658     17653     17652     17654     17653     17652     17655
     17654     17652     17655     17655     17658     17659     17655     17658     17660
     17655     17658     17661     17656     17655     17657     17656     17655     17658
     17657     17655     17658     17658     17661     17662     17658     17661     17663
     17658     17661     17664     17659     17658     17660     17659     17658     17661
     17660     17658     17661     17661     17664     17665     17661     17664     17666
     17661     17664     17667     17662     17661     17663     17662     17661     17664
     17663     17661     17664     17664     17667     17668     17664     17667     17669
     17664     17667     17670     17665     17664     17666     17665     17664     17667
     17666     17664     17667     17667     17670     17671     17667     17670     17672
     17667     17670     17673     17668     17667     17669     17668     17667     17670
     17669     17667     17670     17670     17673     17674     17670     17673     17675
     17670     17673     17676     17671     17670     17672     17671     17670     17673
     17672     17670     17673     17673     17676     17677     17673     17676     17678
     17673     17676     17679     17674     17673     17675     17674     17673     17676
     17675     17673     17676     17676     17679     17680     17676     17679     17681
     17676     17679     17682     17677     17676     17678     17677     17676     17679
     17678     17676     17679     17679     17682     17683     17679     17682     17684
     17679     17682     17685     17680     17679     17681     17680     17679     17682
     17681     17679     17682     17682     17685     17686     17682     17685     17687
     17682     17685     17688     17683     17682     17684     17683     17682     17685
     17684     17682     17685     17685     17688     17689     17685     17688     17690
     17685     17688     17691     17686     17685     17687     17686     17685     17688
     17687     17685     17688     17689     17688     17690     17689     17688     17691
     17690     17688     17691     17692     17693     17694     17692     17693     17695
     17692     17693     17708     17692     17696     17697     17692     17696     17698
     17692     17696     17699     17692     17700     17701     17692     17700     17702
     17692     17700     17703     17692     17704     17705     17692     17704     17706
     17692     17704     17707     17693     17692     17696     17693     17692     17700
     17693     17692     17704     17693     17708     17709     17693     17708     17710
     17693     17708     17714     17694     17693     17695     17694     17693     17708
     17695     17693     17708     17696     17692     17700     17696     17692     17704
     17697     17696     17698     17697     17696     17699     17698     17696     17699
     17700     17692     17704     17701     17700     17702     17701     17700     17703
     17702     17700     17703     17705     17704     17706     17705     17704     17707
     17706     17704     17707     17708     17714     17711     17709     17708     17710
     17709     17708     17714     17710     17708     17714     17711     17715     17716
     17712     17711     17713     17712     17711     17714     17712     17711     17715
     17713     17711     17714     17713     17711     17715     17714     17711     17715
     17715     17716     17717     17715     17716     17718     17715     17716     17719
     17716     17719     17720     17716     17719     17721     17716     17719     17727
     17717     17716     17718     17717     17716     17719     17718     17716     17719
     17719     17721     17722     17719     17727     17728     17719     17727     17729
     17719     17727     17730     17720     17719     17721     17720     17719     17727
     17721     17719     17727     17721     17722     17723     17721     17722     17724
     17722     17724     17725     17722     17724     17726     17722     17724     17736
     17723     17722     17724     17724     17736     17737     17724     17736     17738
     17724     17736     17739     17725     17724     17726     17725     17724     17736
     17726     17724     17736     17727     17730     17731     17728     17727     17729
     17728     17727     17730     17729     17727     17730     17730     17731     17732
     17730     17731     17733     17731     17733     17734     17731     17733     17735
     17731     17733     17783     17732     17731     17733     17733     17783     17784
     17733     17783     17785     17733     17783     17786     17734     17733     17735
     17734     17733     17783     17735     17733     17783     17736     17739     17740
     17736     17739     17741     17736     17739     17742     17737     17736     17738
     17737     17736     17739     17738     17736     17739     17739     17742     17743
     17739     17742     17744     17740     17739     17741     17740     17739     17742
     17741     17739     17742     17742     17744     17745     17742     17744     17746
     17743     17742     17744     17744     17746     17747     17744     17746     17748
     17744     17746     17749     17745     17744     17746     17746     17749     17750
     17746     17749     17751     17747     17746     17748     17747     17746     17749
     17748     17746     17749     17749     17751     17752     17749     17751     17753
     17750     17749     17751     17751     17753     17754     17751     17753     17755
     17751     17753     17756     17752     17751     17753     17753     17756     17757
     17753     17756     17758     17754     17753     17755     17754     17753     17756
     17755     17753     17756     17756     17758     17759     17756     17758     17760
     17757     17756     17758     17758     17760     17761     17758     17760     17762
     17758     17760     17763     17759     17758     17760     17760     17763     17764
     17760     17763     17765     17761     17760     17762     17761     17760     17763
     17762     17760     17763     17763     17765     17766     17763     17765     17767
     17764     17763     17765     17765     17767     17768     17765     17767     17769
     17765     17767     17770     17766     17765     17767     17767     17770     17771
     17767     17770     17772     17767     17770     17773     17768     17767     17769
     17768     17767     17770     17769     17767     17770     17770     17773     17774
     17770     17773     17775     17770     17773     17776     17771     17770     17772
     17771     17770     17773     17772     17770     17773     17773     17776     17777
     17773     17776     17778     17773     17776     17779     17774     17773     17775
     17774     17773     17776     17775     17773     17776     17776     17779     17780
     17776     17779     17781     17776     17779     17782     17777     17776     17778
     17777     17776     17779     17778     17776     17779     17780     17779     17781
     17780     17779     17782     17781     17779     17782     17783     17786     17787
     17783     17786     17788     17783     17786     17789     17784     17783     17785
     17784     17783     17786     17785     17783     17786     17786     17789     17790
     17786     17789     17791     17786     17789     17792     17787     17786     17788
     17787     17786     17789     17788     17786     17789     17789     17792     17793
     17789     17792     17794     17789     17792     17795     17790     17789     17791
     17790     17789     17792     17791     17789     17792     17792     17795     17796
     17792     17795     17797     17792     17795     17798     17793     17792     17794
     17793     17792     17795     17794     17792     17795     17795     17798     17799
     17795     17798     17800     17795     17798     17801     17796     17795     17797
     17796     17795     17798     17797     17795     17798     17798     17801     17802
     17798     17801     17803     17798     17801     17804     17799     17798     17800
     17799     17798     17801     17800     17798     17801     17801     17804     17805
     17801     17804     17806     17801     17804     17807     17802     17801     17803
     17802     17801     17804     17803     17801     17804     17804     17807     17808
     17804     17807     17809     17804     17807     17810     17805     17804     17806
     17805     17804     17807     17806     17804     17807     17807     17810     17811
     17807     17810     17812     17807     17810     17813     17808     17807     17809
     17808     17807     17810     17809     17807     17810     17810     17813     17814
     17810     17813     17815     17810     17813     17816     17811     17810     17812
     17811     17810     17813     17812     17810     17813     17813     17816     17817
     17813     17816     17818     17813     17816     17819     17814     17813     17815
     17814     17813     17816     17815     17813     17816     17816     17819     17820
     17816     17819     17821     17816     17819     17822     17817     17816     17818
     17817     17816     17819     17818     17816     17819     17819     17822     17823
     17819     17822     17824     17819     17822     17825     17820     17819     17821
     17820     17819     17822     17821     17819     17822     17822     17825     17826
     17822     17825     17827     17822     17825     17828     17823     17822     17824
     17823     17822     17825     17824     17822     17825     17825     17828     17829
     17825     17828     17830     17825     17828     17831     17826     17825     17827
     17826     17825     17828     17827     17825     17828     17829     17828     17830
     17829     17828     17831     17830     17828     17831     17832     17836     17837
     17832     17836     17838     17832     17836     17841     17833     17832     17834
     17833     17832     17835     17833     17832     17836     17834     17832     17835
     17834     17832     17836     17835     17832     17836     17836     17838     17839
     17836     17838     17840     17836     17841     17842     17836     17841     17843
     17836     17841     17847     17837     17836     17838     17837     17836     17841
     17838     17836     17841     17839     17838     17840     17841     17847     17844
     17842     17841     17843     17842     17841     17847     17843     17841     17847
     17844     17848     17849     17845     17844     17846     17845     17844     17847
     17845     17844     17848     17846     17844     17847     17846     17844     17848
     17847     17844     17848     17848     17849     17850     17848     17849     17851
     17848     17849     17852     17849     17852     17853     17849     17852     17854
     17849     17852     17860     17850     17849     17851     17850     17849     17852
     17851     17849     17852     17852     17854     17855     17852     17860     17861
     17852     17860     17862     17852     17860     17863     17853     17852     17854
     17853     17852     17860     17854     17852     17860     17854     17855     17856
     17854     17855     17857     17855     17857     17858     17855     17857     17859
     17855     17857     17869     17856     17855     17857     17857     17869     17870
     17857     17869     17871     17857     17869     17872     17858     17857     17859
     17858     17857     17869     17859     17857     17869     17860     17863     17864
     17861     17860     17862     17861     17860     17863     17862     17860     17863
     17863     17864     17865     17863     17864     17866     17864     17866     17867
     17864     17866     17868     17864     17866     17916     17865     17864     17866
     17866     17916     17917     17866     17916     17918     17866     17916     17919
     17867     17866     17868     17867     17866     17916     17868     17866     17916
     17869     17872     17873     17869     17872     17874     17869     17872     17875
     17870     17869     17871     17870     17869     17872     17871     17869     17872
     17872     17875     17876     17872     17875     17877     17873     17872     17874
     17873     17872     17875     17874     17872     17875     17875     17877     17878
     17875     17877     17879     17876     17875     17877     17877     17879     17880
     17877     17879     17881     17877     17879     17882     17878     17877     17879
     17879     17882     17883     17879     17882     17884     17880     17879     17881
     17880     17879     17882     17881     17879     17882     17882     17884     17885
     17882     17884     17886     17883     17882     17884     17884     17886     17887
     17884     17886     17888     17884     17886     17889     17885     17884     17886
     17886     17889     17890     17886     17889     17891     17887     17886     17888
     17887     17886     17889     17888     17886     17889     17889     17891     17892
     17889     17891     17893     17890     17889     17891     17891     17893     17894
     17891     17893     17895     17891     17893     17896     17892     17891     17893
     17893     17896     17897     17893     17896     17898     17894     17893     17895
     17894     17893     17896     17895     17893     17896     17896     17898     17899
     17896     17898     17900     17897     17896     17898     17898     17900     17901
     17898     17900     17902     17898     17900     17903     17899     17898     17900
     17900     17903     17904     17900     17903     17905     17900     17903     17906
     17901     17900     17902     17901     17900     17903     17902     17900     17903
     17903     17906     17907     17903     17906     17908     17903     17906     17909
     17904     17903     17905     17904     17903     17906     17905     17903     17906
     17906     17909     17910     17906     17909     17911     17906     17909     17912
     17907     17906     17908     17907     17906     17909     17908     17906     17909
     17909     17912     17913     17909     17912     17914     17909     17912     17915
     17910     17909     17911     17910     17909     17912     17911     17909     17912
     17913     17912     17914     17913     17912     17915     17914     17912     17915
     17916     17919     17920     17916     17919     17921     17916     17919     17922
     17917     17916     17918     17917     17916     17919     17918     17916     17919
     17919     17922     17923     17919     17922     17924     17919     17922     17925
     17920     17919     17921     17920     17919     17922     17921     17919     17922
     17922     17925     17926     17922     17925     17927     17922     17925     17928
     17923     17922     17924     17923     17922     17925     17924     17922     17925
     17925     17928     17929     17925     17928     17930     17925     17928     17931
     17926     17925     17927     17926     17925     17928     17927     17925     17928
     17928     17931     17932     17928     17931     17933     17928     17931     17934
     17929     17928     17930     17929     17928     17931     17930     17928     17931
     17931     17934     17935     17931     17934     17936     17931     17934     17937
     17932     17931     17933     17932     17931     17934     17933     17931     17934
     17934     17937     17938     17934     17937     17939     17934     17937     17940
     17935     17934     17936     17935     17934     17937     17936     17934     17937
     17937     17940     17941     17937     17940     17942     17937     17940     17943
     17938     17937     17939     17938     17937     17940     17939     17937     17940
     17940     17943     17944     17940     17943     17945     17940     17943     17946
     17941     17940     17942     17941     17940     17943     17942     17940     17943
     17943     17946     17947     17943     17946     17948     17943     17946     17949
     17944     17943     17945     17944     17943     17946     17945     17943     17946
     17946     17949     17950     17946     17949     17951     17946     17949     17952
     17947     17946     17948     17947     17946     17949     17948     17946     17949
     17949     17952     17953     17949     17952     17954     17949     17952     17955
     17950     17949     17951     17950     17949     17952     17951     17949     17952
     17952     17955     17956     17952     17955     17957     17952     17955     17958
     17953     17952     17954     17953     17952     17955     17954     17952     17955
     17955     17958     17959     17955     17958     17960     17955     17958     17961
     17956     17955     17957     17956     17955     17958     17957     17955     17958
     17958     17961     17962     17958     17961     17963     17958     17961     17964
     17959     17958     17960     17959     17958     17961     17960     17958     17961
     17962     17961     17963     17962     17961     17964     17963     17961     17964
     17965     17967     17968     17965     17969     17970     17965     17969     17971
     17965     17969     17973     17965     17985     17981     17965     17985     17986
     17965     17985     17990     17966     17965     17967     17966     17965     17969
     17966     17965     17985     17967     17965     17969     17967     17965     17985
     17969     17965     17985     17969     17971     17972     17969     17973     17974
     17969     17973     17975     17969     17973     17977     17970     17969     17971
     17970     17969     17973     17971     17969     17973     17973     17975     17976
     17973     17977     17978     17973     17977     17979     17973     17977     17981
     17974     17973     17975     17974     17973     17977     17975     17973     17977
     17977     17979     17980     17977     17981     17982     17977     17981     17983
     17977     17981     17985     17978     17977     17979     17978     17977     17981
     17979     17977     17981     17981     17983     17984     17981     17985     17986
     17981     17985     17990     17982     17981     17983     17982     17981     17985
     17983     17981     17985     17985     17990     17987     17986     17985     17990
     17987     17991     17992     17988     17987     17989     17988     17987     17990
     17988     17987     17991     17989     17987     17990     17989     17987     17991
     17990     17987     17991     17991     17992     17993     17991     17992     17994
     17991     17992     17995     17992     17995     17996     17992     17995     17997
     17992     17995     18003     17993     17992     17994     17993     17992     17995
     17994     17992     17995     17995     17997     17998     17995     18003     18004
     17995     18003     18005     17995     18003     18006     17996     17995     17997
     17996     17995     18003     17997     17995     18003     17997     17998     17999
     17997     17998     18000     17998     18000     18001     17998     18000     18002
     17998     18000     18012     17999     17998     18000     18000     18012     18013
     18000     18012     18014     18000     18012     18015     18001     18000     18002
     18001     18000     18012     18002     18000     18012     18003     18006     18007
     18004     18003     18005     18004     18003     18006     18005     18003     18006
     18006     18007     18008     18006     18007     18009     18007     18009     18010
     18007     18009     18011     18007     18009     18059     18008     18007     18009
     18009     18059     18060     18009     18059     18061     18009     18059     18062
     18010     18009     18011     18010     18009     18059     18011     18009     18059
     18012     18015     18016     18012     18015     18017     18012     18015     18018
     18013     18012     18014     18013     18012     18015     18014     18012     18015
     18015     18018     18019     18015     18018     18020     18016     18015     18017
     18016     18015     18018     18017     18015     18018     18018     18020     18021
     18018     18020     18022     18019     18018     18020     18020     18022     18023
     18020     18022     18024     18020     18022     18025     18021     18020     18022
     18022     18025     18026     18022     18025     18027     18023     18022     18024
     18023     18022     18025     18024     18022     18025     18025     18027     18028
     18025     18027     18029     18026     18025     18027     18027     18029     18030
     18027     18029     18031     18027     18029     18032     18028     18027     18029
     18029     18032     18033     18029     18032     18034     18030     18029     18031
     18030     18029     18032     18031     18029     18032     18032     18034     18035
     18032     18034     18036     18033     18032     18034     18034     18036     18037
     18034     18036     18038     18034     18036     18039     18035     18034     18036
     18036     18039     18040     18036     18039     18041     18037     18036     18038
     18037     18036     18039     18038     18036     18039     18039     18041     18042
     18039     18041     18043     18040     18039     18041     18041     18043     18044
     18041     18043     18045     18041     18043     18046     18042     18041     18043
     18043     18046     18047     18043     18046     18048     18043     18046     18049
     18044     18043     18045     18044     18043     18046     18045     18043     18046
     18046     18049     18050     18046     18049     18051     18046     18049     18052
     18047     18046     18048     18047     18046     18049     18048     18046     18049
     18049     18052     18053     18049     18052     18054     18049     18052     18055
     18050     18049     18051     18050     18049     18052     18051     18049     18052
     18052     18055     18056     18052     18055     18057     18052     18055     18058
     18053     18052     18054     18053     18052     18055     18054     18052     18055
     18056     18055     18057     18056     18055     18058     18057     18055     18058
     18059     18062     18063     18059     18062     18064     18059     18062     18065
     18060     18059     18061     18060     18059     18062     18061     18059     18062
     18062     18065     18066     18062     18065     18067     18062     18065     18068
     18063     18062     18064     18063     18062     18065     18064     18062     18065
     18065     18068     18069     18065     18068     18070     18065     18068     18071
     18066     18065     18067     18066     18065     18068     18067     18065     18068
     18068     18071     18072     18068     18071     18073     18068     18071     18074
     18069     18068     18070     18069     18068     18071     18070     18068     18071
     18071     18074     18075     18071     18074     18076     18071     18074     18077
     18072     18071     18073     18072     18071     18074     18073     18071     18074
     18074     18077     18078     18074     18077     18079     18074     18077     18080
     18075     18074     18076     18075     18074     18077     18076     18074     18077
     18077     18080     18081     18077     18080     18082     18077     18080     18083
     18078     18077     18079     18078     18077     18080     18079     18077     18080
     18080     18083     18084     18080     18083     18085     18080     18083     18086
     18081     18080     18082     18081     18080     18083     18082     18080     18083
     18083     18086     18087     18083     18086     18088     18083     18086     18089
     18084     18083     18085     18084     18083     18086     18085     18083     18086
     18086     18089     18090     18086     18089     18091     18086     18089     18092
     18087     18086     18088     18087     18086     18089     18088     18086     18089
     18089     18092     18093     18089     18092     18094     18089     18092     18095
     18090     18089     18091     18090     18089     18092     18091     18089     18092
     18092     18095     18096     18092     18095     18097     18092     18095     18098
     18093     18092     18094     18093     18092     18095     18094     18092     18095
     18095     18098     18099     18095     18098     18100     18095     18098     18101
     18096     18095     18097     18096     18095     18098     18097     18095     18098
     18098     18101     18102     18098     18101     18103     18098     18101     18104
     18099     18098     18100     18099     18098     18101     18100     18098     18101
     18101     18104     18105     18101     18104     18106     18101     18104     18107
     18102     18101     18103     18102     18101     18104     18103     18101     18104
     18105     18104     18106     18105     18104     18107     18106     18104     18107
     18108     18112     18113     18108     18112     18114     18108     18112     18115
     18109     18108     18110     18109     18108     18111     18109     18108     18112
     18110     18108     18111     18110     18108     18112     18111     18108     18112
     18112     18115     18116     18112     18115     18117     18112     18115     18121
     18113     18112     18114     18113     18112     18115     18114     18112     18115
     18115     18121     18118     18116     18115     18117     18116     18115     18121
     18117     18115     18121     18118     18122     18123     18119     18118     18120
     18119     18118     18121     18119     18118     18122     18120     18118     18121
     18120     18118     18122     18121     18118     18122     18122     18123     18124
     18122     18123     18125     18122     18123     18126     18123     18126     18127
     18123     18126     18128     18123     18126     18134     18124     18123     18125
     18124     18123     18126     18125     18123     18126     18126     18128     18129
     18126     18134     18135     18126     18134     18136     18126     18134     18137
     18127     18126     18128     18127     18126     18134     18128     18126     18134
     18128     18129     18130     18128     18129     18131     18129     18131     18132
     18129     18131     18133     18129     18131     18143     18130     18129     18131
     18131     18143     18144     18131     18143     18145     18131     18143     18146
     18132     18131     18133     18132     18131     18143     18133     18131     18143
     18134     18137     18138     18135     18134     18136     18135     18134     18137
     18136     18134     18137     18137     18138     18139     18137     18138     18140
     18138     18140     18141     18138     18140     18142     18138     18140     18190
     18139     18138     18140     18140     18190     18191     18140     18190     18192
     18140     18190     18193     18141     18140     18142     18141     18140     18190
     18142     18140     18190     18143     18146     18147     18143     18146     18148
     18143     18146     18149     18144     18143     18145     18144     18143     18146
     18145     18143     18146     18146     18149     18150     18146     18149     18151
     18147     18146     18148     18147     18146     18149     18148     18146     18149
     18149     18151     18152     18149     18151     18153     18150     18149     18151
     18151     18153     18154     18151     18153     18155     18151     18153     18156
     18152     18151     18153     18153     18156     18157     18153     18156     18158
     18154     18153     18155     18154     18153     18156     18155     18153     18156
     18156     18158     18159     18156     18158     18160     18157     18156     18158
     18158     18160     18161     18158     18160     18162     18158     18160     18163
     18159     18158     18160     18160     18163     18164     18160     18163     18165
     18161     18160     18162     18161     18160     18163     18162     18160     18163
     18163     18165     18166     18163     18165     18167     18164     18163     18165
     18165     18167     18168     18165     18167     18169     18165     18167     18170
     18166     18165     18167     18167     18170     18171     18167     18170     18172
     18168     18167     18169     18168     18167     18170     18169     18167     18170
     18170     18172     18173     18170     18172     18174     18171     18170     18172
     18172     18174     18175     18172     18174     18176     18172     18174     18177
     18173     18172     18174     18174     18177     18178     18174     18177     18179
     18174     18177     18180     18175     18174     18176     18175     18174     18177
     18176     18174     18177     18177     18180     18181     18177     18180     18182
     18177     18180     18183     18178     18177     18179     18178     18177     18180
     18179     18177     18180     18180     18183     18184     18180     18183     18185
     18180     18183     18186     18181     18180     18182     18181     18180     18183
     18182     18180     18183     18183     18186     18187     18183     18186     18188
     18183     18186     18189     18184     18183     18185     18184     18183     18186
     18185     18183     18186     18187     18186     18188     18187     18186     18189
     18188     18186     18189     18190     18193     18194     18190     18193     18195
     18190     18193     18196     18191     18190     18192     18191     18190     18193
     18192     18190     18193     18193     18196     18197     18193     18196     18198
     18193     18196     18199     18194     18193     18195     18194     18193     18196
     18195     18193     18196     18196     18199     18200     18196     18199     18201
     18196     18199     18202     18197     18196     18198     18197     18196     18199
     18198     18196     18199     18199     18202     18203     18199     18202     18204
     18199     18202     18205     18200     18199     18201     18200     18199     18202
     18201     18199     18202     18202     18205     18206     18202     18205     18207
     18202     18205     18208     18203     18202     18204     18203     18202     18205
     18204     18202     18205     18205     18208     18209     18205     18208     18210
     18205     18208     18211     18206     18205     18207     18206     18205     18208
     18207     18205     18208     18208     18211     18212     18208     18211     18213
     18208     18211     18214     18209     18208     18210     18209     18208     18211
     18210     18208     18211     18211     18214     18215     18211     18214     18216
     18211     18214     18217     18212     18211     18213     18212     18211     18214
     18213     18211     18214     18214     18217     18218     18214     18217     18219
     18214     18217     18220     18215     18214     18216     18215     18214     18217
     18216     18214     18217     18217     18220     18221     18217     18220     18222
     18217     18220     18223     18218     18217     18219     18218     18217     18220
     18219     18217     18220     18220     18223     18224     18220     18223     18225
     18220     18223     18226     18221     18220     18222     18221     18220     18223
     18222     18220     18223     18223     18226     18227     18223     18226     18228
     18223     18226     18229     18224     18223     18225     18224     18223     18226
     18225     18223     18226     18226     18229     18230     18226     18229     18231
     18226     18229     18232     18227     18226     18228     18227     18226     18229
     18228     18226     18229     18229     18232     18233     18229     18232     18234
     18229     18232     18235     18230     18229     18231     18230     18229     18232
     18231     18229     18232     18232     18235     18236     18232     18235     18237
     18232     18235     18238     18233     18232     18234     18233     18232     18235
     18234     18232     18235     18236     18235     18237     18236     18235     18238
     18237     18235     18238     18239     18243     18244     18239     18243     18245
     18239     18243     18246     18240     18239     18241     18240     18239     18242
     18240     18239     18243     18241     18239     18242     18241     18239     18243
     18242     18239     18243     18243     18246     18247     18243     18246     18248
     18243     18246     18252     18244     18243     18245     18244     18243     18246
     18245     18243     18246     18246     18252     18249     18247     18246     18248
     18247     18246     18252     18248     18246     18252     18249     18253     18254
     18250     18249     18251     18250     18249     18252     18250     18249     18253
     18251     18249     18252     18251     18249     18253     18252     18249     18253
     18253     18254     18255     18253     18254     18256     18253     18254     18257
     18254     18257     18258     18254     18257     18259     18254     18257     18265
     18255     18254     18256     18255     18254     18257     18256     18254     18257
     18257     18259     18260     18257     18265     18266     18257     18265     18267
     18257     18265     18268     18258     18257     18259     18258     18257     18265
     18259     18257     18265     18259     18260     18261     18259     18260     18262
     18260     18262     18263     18260     18262     18264     18260     18262     18274
     18261     18260     18262     18262     18274     18275     18262     18274     18276
     18262     18274     18277     18263     18262     18264     18263     18262     18274
     18264     18262     18274     18265     18268     18269     18266     18265     18267
     18266     18265     18268     18267     18265     18268     18268     18269     18270
     18268     18269     18271     18269     18271     18272     18269     18271     18273
     18269     18271     18321     18270     18269     18271     18271     18321     18322
     18271     18321     18323     18271     18321     18324     18272     18271     18273
     18272     18271     18321     18273     18271     18321     18274     18277     18278
     18274     18277     18279     18274     18277     18280     18275     18274     18276
     18275     18274     18277     18276     18274     18277     18277     18280     18281
     18277     18280     18282     18278     18277     18279     18278     18277     18280
     18279     18277     18280     18280     18282     18283     18280     18282     18284
     18281     18280     18282     18282     18284     18285     18282     18284     18286
     18282     18284     18287     18283     18282     18284     18284     18287     18288
     18284     18287     18289     18285     18284     18286     18285     18284     18287
     18286     18284     18287     18287     18289     18290     18287     18289     18291
     18288     18287     18289     18289     18291     18292     18289     18291     18293
     18289     18291     18294     18290     18289     18291     18291     18294     18295
     18291     18294     18296     18292     18291     18293     18292     18291     18294
     18293     18291     18294     18294     18296     18297     18294     18296     18298
     18295     18294     18296     18296     18298     18299     18296     18298     18300
     18296     18298     18301     18297     18296     18298     18298     18301     18302
     18298     18301     18303     18299     18298     18300     18299     18298     18301
     18300     18298     18301     18301     18303     18304     18301     18303     18305
     18302     18301     18303     18303     18305     18306     18303     18305     18307
     18303     18305     18308     18304     18303     18305     18305     18308     18309
     18305     18308     18310     18305     18308     18311     18306     18305     18307
     18306     18305     18308     18307     18305     18308     18308     18311     18312
     18308     18311     18313     18308     18311     18314     18309     18308     18310
     18309     18308     18311     18310     18308     18311     18311     18314     18315
     18311     18314     18316     18311     18314     18317     18312     18311     18313
     18312     18311     18314     18313     18311     18314     18314     18317     18318
     18314     18317     18319     18314     18317     18320     18315     18314     18316
     18315     18314     18317     18316     18314     18317     18318     18317     18319
     18318     18317     18320     18319     18317     18320     18321     18324     18325
     18321     18324     18326     18321     18324     18327     18322     18321     18323
     18322     18321     18324     18323     18321     18324     18324     18327     18328
     18324     18327     18329     18324     18327     18330     18325     18324     18326
     18325     18324     18327     18326     18324     18327     18327     18330     18331
     18327     18330     18332     18327     18330     18333     18328     18327     18329
     18328     18327     18330     18329     18327     18330     18330     18333     18334
     18330     18333     18335     18330     18333     18336     18331     18330     18332
     18331     18330     18333     18332     18330     18333     18333     18336     18337
     18333     18336     18338     18333     18336     18339     18334     18333     18335
     18334     18333     18336     18335     18333     18336     18336     18339     18340
     18336     18339     18341     18336     18339     18342     18337     18336     18338
     18337     18336     18339     18338     18336     18339     18339     18342     18343
     18339     18342     18344     18339     18342     18345     18340     18339     18341
     18340     18339     18342     18341     18339     18342     18342     18345     18346
     18342     18345     18347     18342     18345     18348     18343     18342     18344
     18343     18342     18345     18344     18342     18345     18345     18348     18349
     18345     18348     18350     18345     18348     18351     18346     18345     18347
     18346     18345     18348     18347     18345     18348     18348     18351     18352
     18348     18351     18353     18348     18351     18354     18349     18348     18350
     18349     18348     18351     18350     18348     18351     18351     18354     18355
     18351     18354     18356     18351     18354     18357     18352     18351     18353
     18352     18351     18354     18353     18351     18354     18354     18357     18358
     18354     18357     18359     18354     18357     18360     18355     18354     18356
     18355     18354     18357     18356     18354     18357     18357     18360     18361
     18357     18360     18362     18357     18360     18363     18358     18357     18359
     18358     18357     18360     18359     18357     18360     18360     18363     18364
     18360     18363     18365     18360     18363     18366     18361     18360     18362
     18361     18360     18363     18362     18360     18363     18363     18366     18367
     18363     18366     18368     18363     18366     18369     18364     18363     18365
     18364     18363     18366     18365     18363     18366     18367     18366     18368
     18367     18366     18369     18368     18366     18369     18370     18371     18372
     18370     18371     18373     18370     18371     18374     18370     18375     18376
     18370     18375     18377     18370     18375     18378     18370     18379     18380
     18370     18379     18381     18370     18379     18382     18370     18383     18384
     18370     18383     18385     18370     18383     18386     18371     18370     18375
     18371     18370     18379     18371     18370     18383     18372     18371     18373
     18372     18371     18374     18373     18371     18374     18375     18370     18379
     18375     18370     18383     18376     18375     18377     18376     18375     18378
     18377     18375     18378     18379     18370     18383     18380     18379     18381
     18380     18379     18382     18381     18379     18382     18383     18386     18387
     18383     18386     18388     18383     18386     18393     18384     18383     18385
     18384     18383     18386     18385     18383     18386     18386     18393     18389
     18387     18386     18388     18387     18386     18393     18388     18386     18393
     18389     18392     18394     18390     18389     18391     18390     18389     18392
     18390     18389     18393     18391     18389     18392     18391     18389     18393
     18392     18389     18393     18392     18394     18395     18392     18394     18396
     18392     18394     18399     18394     18399     18397     18394     18399     18400
     18394     18399     18401     18395     18394     18396     18395     18394     18399
     18396     18394     18399     18397     18399     18400     18397     18399     18401
     18397     18449     18450     18397     18449     18451     18398     18397     18399
     18398     18397     18449     18399     18397     18449     18399     18401     18402
     18399     18401     18403     18399     18401     18405     18400     18399     18401
     18401     18403     18404     18401     18405     18406     18401     18405     18407
     18402     18401     18403     18402     18401     18405     18403     18401     18405
     18405     18407     18408     18405     18407     18409     18406     18405     18407
     18407     18409     18410     18407     18409     18411     18407     18409     18412
     18408     18407     18409     18409     18412     18413     18409     18412     18414
     18409     18412     18415     18410     18409     18411     18410     18409     18412
     18411     18409     18412     18412     18415     18416     18412     18415     18417
     18412     18415     18418     18413     18412     18414     18413     18412     18415
     18414     18412     18415     18415     18418     18419     18415     18418     18420
     18415     18418     18421     18416     18415     18417     18416     18415     18418
     18417     18415     18418     18418     18421     18422     18418     18421     18423
     18418     18421     18424     18419     18418     18420     18419     18418     18421
     18420     18418     18421     18421     18424     18425     18421     18424     18426
     18421     18424     18427     18422     18421     18423     18422     18421     18424
     18423     18421     18424     18424     18427     18428     18424     18427     18429
     18424     18427     18430     18425     18424     18426     18425     18424     18427
     18426     18424     18427     18427     18430     18431     18427     18430     18432
     18427     18430     18433     18428     18427     18429     18428     18427     18430
     18429     18427     18430     18430     18433     18434     18430     18433     18435
     18430     18433     18436     18431     18430     18432     18431     18430     18433
     18432     18430     18433     18433     18436     18437     18433     18436     18438
     18433     18436     18439     18434     18433     18435     18434     18433     18436
     18435     18433     18436     18436     18439     18440     18436     18439     18441
     18436     18439     18442     18437     18436     18438     18437     18436     18439
     18438     18436     18439     18439     18442     18443     18439     18442     18444
     18439     18442     18445     18440     18439     18441     18440     18439     18442
     18441     18439     18442     18442     18445     18446     18442     18445     18447
     18442     18445     18448     18443     18442     18444     18443     18442     18445
     18444     18442     18445     18446     18445     18447     18446     18445     18448
     18447     18445     18448     18449     18451     18452     18449     18451     18453
     18449     18451     18454     18450     18449     18451     18451     18454     18455
     18451     18454     18456     18451     18454     18457     18452     18451     18453
     18452     18451     18454     18453     18451     18454     18454     18457     18458
     18454     18457     18459     18454     18457     18460     18455     18454     18456
     18455     18454     18457     18456     18454     18457     18457     18460     18461
     18457     18460     18462     18457     18460     18463     18458     18457     18459
     18458     18457     18460     18459     18457     18460     18460     18463     18464
     18460     18463     18465     18460     18463     18466     18461     18460     18462
     18461     18460     18463     18462     18460     18463     18463     18466     18467
     18463     18466     18468     18463     18466     18469     18464     18463     18465
     18464     18463     18466     18465     18463     18466     18466     18469     18470
     18466     18469     18471     18466     18469     18472     18467     18466     18468
     18467     18466     18469     18468     18466     18469     18469     18472     18473
     18469     18472     18474     18470     18469     18471     18470     18469     18472
     18471     18469     18472     18472     18474     18475     18472     18474     18476
     18473     18472     18474     18474     18476     18477     18474     18476     18478
     18474     18476     18479     18475     18474     18476     18476     18479     18480
     18476     18479     18481     18476     18479     18482     18477     18476     18478
     18477     18476     18479     18478     18476     18479     18479     18482     18483
     18479     18482     18484     18479     18482     18485     18480     18479     18481
     18480     18479     18482     18481     18479     18482     18482     18485     18486
     18482     18485     18487     18482     18485     18488     18483     18482     18484
     18483     18482     18485     18484     18482     18485     18485     18488     18489
     18485     18488     18490     18485     18488     18491     18486     18485     18487
     18486     18485     18488     18487     18485     18488     18488     18491     18492
     18488     18491     18493     18488     18491     18494     18489     18488     18490
     18489     18488     18491     18490     18488     18491     18491     18494     18495
     18491     18494     18496     18491     18494     18497     18492     18491     18493
     18492     18491     18494     18493     18491     18494     18494     18497     18498
     18494     18497     18499     18494     18497     18500     18495     18494     18496
     18495     18494     18497     18496     18494     18497     18498     18497     18499
     18498     18497     18500     18499     18497     18500     18501     18502     18503
     18501     18502     18504     18501     18502     18505     18501     18506     18507
     18501     18506     18508     18501     18506     18509     18501     18510     18511
     18501     18510     18512     18501     18510     18513     18501     18514     18515
     18501     18514     18516     18501     18514     18517     18502     18501     18506
     18502     18501     18510     18502     18501     18514     18503     18502     18504
     18503     18502     18505     18504     18502     18505     18506     18501     18510
     18506     18501     18514     18507     18506     18508     18507     18506     18509
     18508     18506     18509     18510     18501     18514     18511     18510     18512
     18511     18510     18513     18512     18510     18513     18514     18517     18518
     18514     18517     18519     18514     18517     18524     18515     18514     18516
     18515     18514     18517     18516     18514     18517     18517     18524     18520
     18518     18517     18519     18518     18517     18524     18519     18517     18524
     18520     18523     18525     18521     18520     18522     18521     18520     18523
     18521     18520     18524     18522     18520     18523     18522     18520     18524
     18523     18520     18524     18523     18525     18526     18523     18525     18527
     18523     18525     18530     18525     18530     18528     18525     18530     18531
     18525     18530     18532     18526     18525     18527     18526     18525     18530
     18527     18525     18530     18528     18530     18531     18528     18530     18532
     18528     18580     18581     18528     18580     18582     18529     18528     18530
     18529     18528     18580     18530     18528     18580     18530     18532     18533
     18530     18532     18534     18530     18532     18536     18531     18530     18532
     18532     18534     18535     18532     18536     18537     18532     18536     18538
     18533     18532     18534     18533     18532     18536     18534     18532     18536
     18536     18538     18539     18536     18538     18540     18537     18536     18538
     18538     18540     18541     18538     18540     18542     18538     18540     18543
     18539     18538     18540     18540     18543     18544     18540     18543     18545
     18540     18543     18546     18541     18540     18542     18541     18540     18543
     18542     18540     18543     18543     18546     18547     18543     18546     18548
     18543     18546     18549     18544     18543     18545     18544     18543     18546
     18545     18543     18546     18546     18549     18550     18546     18549     18551
     18546     18549     18552     18547     18546     18548     18547     18546     18549
     18548     18546     18549     18549     18552     18553     18549     18552     18554
     18549     18552     18555     18550     18549     18551     18550     18549     18552
     18551     18549     18552     18552     18555     18556     18552     18555     18557
     18552     18555     18558     18553     18552     18554     18553     18552     18555
     18554     18552     18555     18555     18558     18559     18555     18558     18560
     18555     18558     18561     18556     18555     18557     18556     18555     18558
     18557     18555     18558     18558     18561     18562     18558     18561     18563
     18558     18561     18564     18559     18558     18560     18559     18558     18561
     18560     18558     18561     18561     18564     18565     18561     18564     18566
     18561     18564     18567     18562     18561     18563     18562     18561     18564
     18563     18561     18564     18564     18567     18568     18564     18567     18569
     18564     18567     18570     18565     18564     18566     18565     18564     18567
     18566     18564     18567     18567     18570     18571     18567     18570     18572
     18567     18570     18573     18568     18567     18569     18568     18567     18570
     18569     18567     18570     18570     18573     18574     18570     18573     18575
     18570     18573     18576     18571     18570     18572     18571     18570     18573
     18572     18570     18573     18573     18576     18577     18573     18576     18578
     18573     18576     18579     18574     18573     18575     18574     18573     18576
     18575     18573     18576     18577     18576     18578     18577     18576     18579
     18578     18576     18579     18580     18582     18583     18580     18582     18584
     18580     18582     18585     18581     18580     18582     18582     18585     18586
     18582     18585     18587     18582     18585     18588     18583     18582     18584
     18583     18582     18585     18584     18582     18585     18585     18588     18589
     18585     18588     18590     18585     18588     18591     18586     18585     18587
     18586     18585     18588     18587     18585     18588     18588     18591     18592
     18588     18591     18593     18588     18591     18594     18589     18588     18590
     18589     18588     18591     18590     18588     18591     18591     18594     18595
     18591     18594     18596     18591     18594     18597     18592     18591     18593
     18592     18591     18594     18593     18591     18594     18594     18597     18598
     18594     18597     18599     18594     18597     18600     18595     18594     18596
     18595     18594     18597     18596     18594     18597     18597     18600     18601
     18597     18600     18602     18597     18600     18603     18598     18597     18599
     18598     18597     18600     18599     18597     18600     18600     18603     18604
     18600     18603     18605     18601     18600     18602     18601     18600     18603
     18602     18600     18603     18603     18605     18606     18603     18605     18607
     18604     18603     18605     18605     18607     18608     18605     18607     18609
     18605     18607     18610     18606     18605     18607     18607     18610     18611
     18607     18610     18612     18607     18610     18613     18608     18607     18609
     18608     18607     18610     18609     18607     18610     18610     18613     18614
     18610     18613     18615     18610     18613     18616     18611     18610     18612
     18611     18610     18613     18612     18610     18613     18613     18616     18617
     18613     18616     18618     18613     18616     18619     18614     18613     18615
     18614     18613     18616     18615     18613     18616     18616     18619     18620
     18616     18619     18621     18616     18619     18622     18617     18616     18618
     18617     18616     18619     18618     18616     18619     18619     18622     18623
     18619     18622     18624     18619     18622     18625     18620     18619     18621
     18620     18619     18622     18621     18619     18622     18622     18625     18626
     18622     18625     18627     18622     18625     18628     18623     18622     18624
     18623     18622     18625     18624     18622     18625     18625     18628     18629
     18625     18628     18630     18625     18628     18631     18626     18625     18627
     18626     18625     18628     18627     18625     18628     18629     18628     18630
     18629     18628     18631     18630     18628     18631     18632     18634     18635
     18632     18636     18637     18632     18636     18638     18632     18636     18639
     18632     18678     18675     18632     18678     18679     18632     18678     18680
     18633     18632     18634     18633     18632     18636     18633     18632     18678
     18634     18632     18636     18634     18632     18678     18636     18632     18678
     18636     18639     18640     18636     18639     18670     18637     18636     18638
     18637     18636     18639     18638     18636     18639     18639     18640     18641
     18639     18640     18642     18639     18670     18668     18639     18670     18671
     18639     18670     18675     18640     18639     18670     18640     18642     18643
     18640     18642     18644     18640     18642     18645     18641     18640     18642
     18642     18645     18646     18642     18645     18647     18642     18645     18668
     18643     18642     18644     18643     18642     18645     18644     18642     18645
     18645     18647     18648     18645     18647     18649     18645     18647     18657
     18645     18668     18665     18645     18668     18669     18645     18668     18670
     18646     18645     18647     18646     18645     18668     18647     18645     18668
     18647     18649     18650     18647     18649     18651     18647     18649     18652
     18647     18657     18655     18647     18657     18658     18647     18657     18662
     18648     18647     18649     18648     18647     18657     18649     18647     18657
     18649     18652     18653     18649     18652     18654     18649     18652     18655
     18650     18649     18651     18650     18649     18652     18651     18649     18652
     18652     18655     18656     18652     18655     18657     18652     18655     18681
     18653     18652     18654     18653     18652     18655     18654     18652     18655
     18655     18657     18658     18655     18657     18662     18655     18681     18682
     18655     18681     18683     18655     18681     18687     18656     18655     18657
     18656     18655     18681     18657     18655     18681     18657     18658     18659
     18657     18658     18660     18657     18658     18661     18657     18662     18663
     18657     18662     18664     18657     18662     18665     18658     18657     18662
     18659     18658     18660     18659     18658     18661     18660     18658     18661
     18662     18665     18666     18662     18665     18667     18662     18665     18668
     18663     18662     18664     18663     18662     18665     18664     18662     18665
     18665     18668     18669     18665     18668     18670     18666     18665     18667
     18666     18665     18668     18667     18665     18668     18668     18670     18671
     18668     18670     18675     18669     18668     18670     18670     18671     18672
     18670     18671     18673     18670     18671     18674     18670     18675     18676
     18670     18675     18677     18670     18675     18678     18671     18670     18675
     18672     18671     18673     18672     18671     18674     18673     18671     18674
     18675     18678     18679     18675     18678     18680     18676     18675     18677
     18676     18675     18678     18677     18675     18678     18679     18678     18680
     18681     18683     18684     18681     18683     18685     18681     18683     18686
     18681     18687     18688     18681     18687     18689     18681     18687     18690
     18682     18681     18683     18682     18681     18687     18683     18681     18687
     18684     18683     18685     18684     18683     18686     18685     18683     18686
     18687     18690     18691     18687     18690     18692     18687     18690     18693
     18688     18687     18689     18688     18687     18690     18689     18687     18690
     18690     18693     18694     18690     18693     18695     18690     18693     18696
     18691     18690     18692     18691     18690     18693     18692     18690     18693
     18693     18696     18697     18693     18696     18698     18693     18696     18702
     18694     18693     18695     18694     18693     18696     18695     18693     18696
     18696     18698     18699     18696     18698     18700     18696     18698     18701
     18696     18702     18703     18696     18702     18704     18696     18702     18705
     18697     18696     18698     18697     18696     18702     18698     18696     18702
     18699     18698     18700     18699     18698     18701     18700     18698     18701
     18703     18702     18704     18703     18702     18705     18704     18702     18705
     18706     18710     18711     18706     18710     18712     18706     18710     18713
     18707     18706     18708     18707     18706     18709     18707     18706     18710
     18708     18706     18709     18708     18706     18710     18709     18706     18710
     18710     18713     18714     18710     18713     18715     18710     18713     18719
     18711     18710     18712     18711     18710     18713     18712     18710     18713
     18713     18719     18716     18714     18713     18715     18714     18713     18719
     18715     18713     18719     18716     18720     18721     18717     18716     18718
     18717     18716     18719     18717     18716     18720     18718     18716     18719
     18718     18716     18720     18719     18716     18720     18720     18721     18722
     18720     18721     18723     18720     18721     18724     18721     18724     18725
     18721     18724     18726     18721     18724     18732     18722     18721     18723
     18722     18721     18724     18723     18721     18724     18724     18726     18727
     18724     18732     18733     18724     18732     18734     18724     18732     18735
     18725     18724     18726     18725     18724     18732     18726     18724     18732
     18726     18727     18728     18726     18727     18729     18727     18729     18730
     18727     18729     18731     18727     18729     18741     18728     18727     18729
     18729     18741     18742     18729     18741     18743     18729     18741     18744
     18730     18729     18731     18730     18729     18741     18731     18729     18741
     18732     18735     18736     18733     18732     18734     18733     18732     18735
     18734     18732     18735     18735     18736     18737     18735     18736     18738
     18736     18738     18739     18736     18738     18740     18736     18738     18788
     18737     18736     18738     18738     18788     18789     18738     18788     18790
     18738     18788     18791     18739     18738     18740     18739     18738     18788
     18740     18738     18788     18741     18744     18745     18741     18744     18746
     18741     18744     18747     18742     18741     18743     18742     18741     18744
     18743     18741     18744     18744     18747     18748     18744     18747     18749
     18745     18744     18746     18745     18744     18747     18746     18744     18747
     18747     18749     18750     18747     18749     18751     18748     18747     18749
     18749     18751     18752     18749     18751     18753     18749     18751     18754
     18750     18749     18751     18751     18754     18755     18751     18754     18756
     18752     18751     18753     18752     18751     18754     18753     18751     18754
     18754     18756     18757     18754     18756     18758     18755     18754     18756
     18756     18758     18759     18756     18758     18760     18756     18758     18761
     18757     18756     18758     18758     18761     18762     18758     18761     18763
     18759     18758     18760     18759     18758     18761     18760     18758     18761
     18761     18763     18764     18761     18763     18765     18762     18761     18763
     18763     18765     18766     18763     18765     18767     18763     18765     18768
     18764     18763     18765     18765     18768     18769     18765     18768     18770
     18766     18765     18767     18766     18765     18768     18767     18765     18768
     18768     18770     18771     18768     18770     18772     18769     18768     18770
     18770     18772     18773     18770     18772     18774     18770     18772     18775
     18771     18770     18772     18772     18775     18776     18772     18775     18777
     18772     18775     18778     18773     18772     18774     18773     18772     18775
     18774     18772     18775     18775     18778     18779     18775     18778     18780
     18775     18778     18781     18776     18775     18777     18776     18775     18778
     18777     18775     18778     18778     18781     18782     18778     18781     18783
     18778     18781     18784     18779     18778     18780     18779     18778     18781
     18780     18778     18781     18781     18784     18785     18781     18784     18786
     18781     18784     18787     18782     18781     18783     18782     18781     18784
     18783     18781     18784     18785     18784     18786     18785     18784     18787
     18786     18784     18787     18788     18791     18792     18788     18791     18793
     18788     18791     18794     18789     18788     18790     18789     18788     18791
     18790     18788     18791     18791     18794     18795     18791     18794     18796
     18791     18794     18797     18792     18791     18793     18792     18791     18794
     18793     18791     18794     18794     18797     18798     18794     18797     18799
     18794     18797     18800     18795     18794     18796     18795     18794     18797
     18796     18794     18797     18797     18800     18801     18797     18800     18802
     18797     18800     18803     18798     18797     18799     18798     18797     18800
     18799     18797     18800     18800     18803     18804     18800     18803     18805
     18800     18803     18806     18801     18800     18802     18801     18800     18803
     18802     18800     18803     18803     18806     18807     18803     18806     18808
     18803     18806     18809     18804     18803     18805     18804     18803     18806
     18805     18803     18806     18806     18809     18810     18806     18809     18811
     18806     18809     18812     18807     18806     18808     18807     18806     18809
     18808     18806     18809     18809     18812     18813     18809     18812     18814
     18809     18812     18815     18810     18809     18811     18810     18809     18812
     18811     18809     18812     18812     18815     18816     18812     18815     18817
     18812     18815     18818     18813     18812     18814     18813     18812     18815
     18814     18812     18815     18815     18818     18819     18815     18818     18820
     18815     18818     18821     18816     18815     18817     18816     18815     18818
     18817     18815     18818     18818     18821     18822     18818     18821     18823
     18818     18821     18824     18819     18818     18820     18819     18818     18821
     18820     18818     18821     18821     18824     18825     18821     18824     18826
     18821     18824     18827     18822     18821     18823     18822     18821     18824
     18823     18821     18824     18824     18827     18828     18824     18827     18829
     18824     18827     18830     18825     18824     18826     18825     18824     18827
     18826     18824     18827     18827     18830     18831     18827     18830     18832
     18827     18830     18833     18828     18827     18829     18828     18827     18830
     18829     18827     18830     18830     18833     18834     18830     18833     18835
     18830     18833     18836     18831     18830     18832     18831     18830     18833
     18832     18830     18833     18834     18833     18835     18834     18833     18836
     18835     18833     18836     18837     18839     18840     18837     18841     18842
     18837     18841     18843     18837     18841     18844     18837     18883     18880
     18837     18883     18884     18837     18883     18885     18838     18837     18839
     18838     18837     18841     18838     18837     18883     18839     18837     18841
     18839     18837     18883     18841     18837     18883     18841     18844     18845
     18841     18844     18875     18842     18841     18843     18842     18841     18844
     18843     18841     18844     18844     18845     18846     18844     18845     18847
     18844     18875     18873     18844     18875     18876     18844     18875     18880
     18845     18844     18875     18845     18847     18848     18845     18847     18849
     18845     18847     18850     18846     18845     18847     18847     18850     18851
     18847     18850     18852     18847     18850     18873     18848     18847     18849
     18848     18847     18850     18849     18847     18850     18850     18852     18853
     18850     18852     18854     18850     18852     18862     18850     18873     18870
     18850     18873     18874     18850     18873     18875     18851     18850     18852
     18851     18850     18873     18852     18850     18873     18852     18854     18855
     18852     18854     18856     18852     18854     18857     18852     18862     18860
     18852     18862     18863     18852     18862     18867     18853     18852     18854
     18853     18852     18862     18854     18852     18862     18854     18857     18858
     18854     18857     18859     18854     18857     18860     18855     18854     18856
     18855     18854     18857     18856     18854     18857     18857     18860     18861
     18857     18860     18862     18857     18860     18886     18858     18857     18859
     18858     18857     18860     18859     18857     18860     18860     18862     18863
     18860     18862     18867     18860     18886     18887     18860     18886     18888
     18860     18886     18892     18861     18860     18862     18861     18860     18886
     18862     18860     18886     18862     18863     18864     18862     18863     18865
     18862     18863     18866     18862     18867     18868     18862     18867     18869
     18862     18867     18870     18863     18862     18867     18864     18863     18865
     18864     18863     18866     18865     18863     18866     18867     18870     18871
     18867     18870     18872     18867     18870     18873     18868     18867     18869
     18868     18867     18870     18869     18867     18870     18870     18873     18874
     18870     18873     18875     18871     18870     18872     18871     18870     18873
     18872     18870     18873     18873     18875     18876     18873     18875     18880
     18874     18873     18875     18875     18876     18877     18875     18876     18878
     18875     18876     18879     18875     18880     18881     18875     18880     18882
     18875     18880     18883     18876     18875     18880     18877     18876     18878
     18877     18876     18879     18878     18876     18879     18880     18883     18884
     18880     18883     18885     18881     18880     18882     18881     18880     18883
     18882     18880     18883     18884     18883     18885     18886     18888     18889
     18886     18888     18890     18886     18888     18891     18886     18892     18893
     18886     18892     18894     18886     18892     18895     18887     18886     18888
     18887     18886     18892     18888     18886     18892     18889     18888     18890
     18889     18888     18891     18890     18888     18891     18892     18895     18896
     18892     18895     18897     18892     18895     18898     18893     18892     18894
     18893     18892     18895     18894     18892     18895     18895     18898     18899
     18895     18898     18900     18895     18898     18901     18896     18895     18897
     18896     18895     18898     18897     18895     18898     18898     18901     18902
     18898     18901     18903     18898     18901     18907     18899     18898     18900
     18899     18898     18901     18900     18898     18901     18901     18903     18904
     18901     18903     18905     18901     18903     18906     18901     18907     18908
     18901     18907     18909     18901     18907     18910     18902     18901     18903
     18902     18901     18907     18903     18901     18907     18904     18903     18905
     18904     18903     18906     18905     18903     18906     18908     18907     18909
     18908     18907     18910     18909     18907     18910     18911     18912     18913
     18911     18912     18914     18911     18912     18927     18911     18915     18916
     18911     18915     18917     18911     18915     18918     18911     18919     18920
     18911     18919     18921     18911     18919     18922     18911     18923     18924
     18911     18923     18925     18911     18923     18926     18912     18911     18915
     18912     18911     18919     18912     18911     18923     18912     18927     18928
     18912     18927     18929     18912     18927     18933     18913     18912     18914
     18913     18912     18927     18914     18912     18927     18915     18911     18919
     18915     18911     18923     18916     18915     18917     18916     18915     18918
     18917     18915     18918     18919     18911     18923     18920     18919     18921
     18920     18919     18922     18921     18919     18922     18924     18923     18925
     18924     18923     18926     18925     18923     18926     18927     18933     18930
     18928     18927     18929     18928     18927     18933     18929     18927     18933
     18930     18934     18935     18931     18930     18932     18931     18930     18933
     18931     18930     18934     18932     18930     18933     18932     18930     18934
     18933     18930     18934     18934     18935     18936     18934     18935     18937
     18934     18935     18938     18935     18938     18939     18935     18938     18940
     18935     18938     18946     18936     18935     18937     18936     18935     18938
     18937     18935     18938     18938     18940     18941     18938     18946     18947
     18938     18946     18948     18938     18946     18949     18939     18938     18940
     18939     18938     18946     18940     18938     18946     18940     18941     18942
     18940     18941     18943     18941     18943     18944     18941     18943     18945
     18941     18943     18955     18942     18941     18943     18943     18955     18956
     18943     18955     18957     18943     18955     18958     18944     18943     18945
     18944     18943     18955     18945     18943     18955     18946     18949     18950
     18947     18946     18948     18947     18946     18949     18948     18946     18949
     18949     18950     18951     18949     18950     18952     18950     18952     18953
     18950     18952     18954     18950     18952     19002     18951     18950     18952
     18952     19002     19003     18952     19002     19004     18952     19002     19005
     18953     18952     18954     18953     18952     19002     18954     18952     19002
     18955     18958     18959     18955     18958     18960     18955     18958     18961
     18956     18955     18957     18956     18955     18958     18957     18955     18958
     18958     18961     18962     18958     18961     18963     18958     18961     18964
     18959     18958     18960     18959     18958     18961     18960     18958     18961
     18961     18964     18965     18961     18964     18966     18961     18964     18967
     18962     18961     18963     18962     18961     18964     18963     18961     18964
     18964     18967     18968     18964     18967     18969     18964     18967     18970
     18965     18964     18966     18965     18964     18967     18966     18964     18967
     18967     18970     18971     18967     18970     18972     18967     18970     18973
     18968     18967     18969     18968     18967     18970     18969     18967     18970
     18970     18973     18974     18970     18973     18975     18971     18970     18972
     18971     18970     18973     18972     18970     18973     18973     18975     18976
     18973     18975     18977     18974     18973     18975     18975     18977     18978
     18975     18977     18979     18975     18977     18980     18976     18975     18977
     18977     18980     18981     18977     18980     18982     18977     18980     18983
     18978     18977     18979     18978     18977     18980     18979     18977     18980
     18980     18983     18984     18980     18983     18985     18980     18983     18986
     18981     18980     18982     18981     18980     18983     18982     18980     18983
     18983     18986     18987     18983     18986     18988     18983     18986     18989
     18984     18983     18985     18984     18983     18986     18985     18983     18986
     18986     18989     18990     18986     18989     18991     18986     18989     18992
     18987     18986     18988     18987     18986     18989     18988     18986     18989
     18989     18992     18993     18989     18992     18994     18989     18992     18995
     18990     18989     18991     18990     18989     18992     18991     18989     18992
     18992     18995     18996     18992     18995     18997     18992     18995     18998
     18993     18992     18994     18993     18992     18995     18994     18992     18995
     18995     18998     18999     18995     18998     19000     18995     18998     19001
     18996     18995     18997     18996     18995     18998     18997     18995     18998
     18999     18998     19000     18999     18998     19001     19000     18998     19001
     19002     19005     19006     19002     19005     19007     19002     19005     19008
     19003     19002     19004     19003     19002     19005     19004     19002     19005
     19005     19008     19009     19005     19008     19010     19005     19008     19011
     19006     19005     19007     19006     19005     19008     19007     19005     19008
     19008     19011     19012     19008     19011     19013     19008     19011     19014
     19009     19008     19010     19009     19008     19011     19010     19008     19011
     19011     19014     19015     19011     19014     19016     19011     19014     19017
     19012     19011     19013     19012     19011     19014     19013     19011     19014
     19014     19017     19018     19014     19017     19019     19014     19017     19020
     19015     19014     19016     19015     19014     19017     19016     19014     19017
     19017     19020     19021     19017     19020     19022     19017     19020     19023
     19018     19017     19019     19018     19017     19020     19019     19017     19020
     19020     19023     19024     19020     19023     19025     19020     19023     19026
     19021     19020     19022     19021     19020     19023     19022     19020     19023
     19023     19026     19027     19023     19026     19028     19023     19026     19029
     19024     19023     19025     19024     19023     19026     19025     19023     19026
     19026     19029     19030     19026     19029     19031     19026     19029     19032
     19027     19026     19028     19027     19026     19029     19028     19026     19029
     19029     19032     19033     19029     19032     19034     19029     19032     19035
     19030     19029     19031     19030     19029     19032     19031     19029     19032
     19032     19035     19036     19032     19035     19037     19032     19035     19038
     19033     19032     19034     19033     19032     19035     19034     19032     19035
     19035     19038     19039     19035     19038     19040     19035     19038     19041
     19036     19035     19037     19036     19035     19038     19037     19035     19038
     19038     19041     19042     19038     19041     19043     19038     19041     19044
     19039     19038     19040     19039     19038     19041     19040     19038     19041
     19042     19041     19043     19042     19041     19044     19043     19041     19044
     19045     19047     19048     19045     19049     19050     19045     19049     19051
     19045     19049     19052     19045     19091     19088     19045     19091     19092
     19045     19091     19093     19046     19045     19047     19046     19045     19049
     19046     19045     19091     19047     19045     19049     19047     19045     19091
     19049     19045     19091     19049     19052     19053     19049     19052     19083
     19050     19049     19051     19050     19049     19052     19051     19049     19052
     19052     19053     19054     19052     19053     19055     19052     19083     19081
     19052     19083     19084     19052     19083     19088     19053     19052     19083
     19053     19055     19056     19053     19055     19057     19053     19055     19058
     19054     19053     19055     19055     19058     19059     19055     19058     19060
     19055     19058     19081     19056     19055     19057     19056     19055     19058
     19057     19055     19058     19058     19060     19061     19058     19060     19062
     19058     19060     19070     19058     19081     19078     19058     19081     19082
     19058     19081     19083     19059     19058     19060     19059     19058     19081
     19060     19058     19081     19060     19062     19063     19060     19062     19064
     19060     19062     19065     19060     19070     19068     19060     19070     19071
     19060     19070     19075     19061     19060     19062     19061     19060     19070
     19062     19060     19070     19062     19065     19066     19062     19065     19067
     19062     19065     19068     19063     19062     19064     19063     19062     19065
     19064     19062     19065     19065     19068     19069     19065     19068     19070
     19065     19068     19094     19066     19065     19067     19066     19065     19068
     19067     19065     19068     19068     19070     19071     19068     19070     19075
     19068     19094     19095     19068     19094     19096     19068     19094     19100
     19069     19068     19070     19069     19068     19094     19070     19068     19094
     19070     19071     19072     19070     19071     19073     19070     19071     19074
     19070     19075     19076     19070     19075     19077     19070     19075     19078
     19071     19070     19075     19072     19071     19073     19072     19071     19074
     19073     19071     19074     19075     19078     19079     19075     19078     19080
     19075     19078     19081     19076     19075     19077     19076     19075     19078
     19077     19075     19078     19078     19081     19082     19078     19081     19083
     19079     19078     19080     19079     19078     19081     19080     19078     19081
     19081     19083     19084     19081     19083     19088     19082     19081     19083
     19083     19084     19085     19083     19084     19086     19083     19084     19087
     19083     19088     19089     19083     19088     19090     19083     19088     19091
     19084     19083     19088     19085     19084     19086     19085     19084     19087
     19086     19084     19087     19088     19091     19092     19088     19091     19093
     19089     19088     19090     19089     19088     19091     19090     19088     19091
     19092     19091     19093     19094     19096     19097     19094     19096     19098
     19094     19096     19099     19094     19100     19101     19094     19100     19102
     19094     19100     19103     19095     19094     19096     19095     19094     19100
     19096     19094     19100     19097     19096     19098     19097     19096     19099
     19098     19096     19099     19100     19103     19104     19100     19103     19105
     19100     19103     19106     19101     19100     19102     19101     19100     19103
     19102     19100     19103     19103     19106     19107     19103     19106     19108
     19103     19106     19109     19104     19103     19105     19104     19103     19106
     19105     19103     19106     19106     19109     19110     19106     19109     19111
     19106     19109     19115     19107     19106     19108     19107     19106     19109
     19108     19106     19109     19109     19111     19112     19109     19111     19113
     19109     19111     19114     19109     19115     19116     19109     19115     19117
     19109     19115     19118     19110     19109     19111     19110     19109     19115
     19111     19109     19115     19112     19111     19113     19112     19111     19114
     19113     19111     19114     19116     19115     19117     19116     19115     19118
     19117     19115     19118     19119     19120     19121     19119     19120     19122
     19119     19120     19135     19119     19123     19124     19119     19123     19125
     19119     19123     19126     19119     19127     19128     19119     19127     19129
     19119     19127     19130     19119     19131     19132     19119     19131     19133
     19119     19131     19134     19120     19119     19123     19120     19119     19127
     19120     19119     19131     19120     19135     19136     19120     19135     19137
     19120     19135     19141     19121     19120     19122     19121     19120     19135
     19122     19120     19135     19123     19119     19127     19123     19119     19131
     19124     19123     19125     19124     19123     19126     19125     19123     19126
     19127     19119     19131     19128     19127     19129     19128     19127     19130
     19129     19127     19130     19132     19131     19133     19132     19131     19134
     19133     19131     19134     19135     19141     19138     19136     19135     19137
     19136     19135     19141     19137     19135     19141     19138     19142     19143
     19139     19138     19140     19139     19138     19141     19139     19138     19142
     19140     19138     19141     19140     19138     19142     19141     19138     19142
     19142     19143     19144     19142     19143     19145     19142     19143     19146
     19143     19146     19147     19143     19146     19148     19143     19146     19154
     19144     19143     19145     19144     19143     19146     19145     19143     19146
     19146     19148     19149     19146     19154     19155     19146     19154     19156
     19146     19154     19157     19147     19146     19148     19147     19146     19154
     19148     19146     19154     19148     19149     19150     19148     19149     19151
     19149     19151     19152     19149     19151     19153     19149     19151     19163
     19150     19149     19151     19151     19163     19164     19151     19163     19165
     19151     19163     19166     19152     19151     19153     19152     19151     19163
     19153     19151     19163     19154     19157     19158     19155     19154     19156
     19155     19154     19157     19156     19154     19157     19157     19158     19159
     19157     19158     19160     19158     19160     19161     19158     19160     19162
     19158     19160     19210     19159     19158     19160     19160     19210     19211
     19160     19210     19212     19160     19210     19213     19161     19160     19162
     19161     19160     19210     19162     19160     19210     19163     19166     19167
     19163     19166     19168     19163     19166     19169     19164     19163     19165
     19164     19163     19166     19165     19163     19166     19166     19169     19170
     19166     19169     19171     19167     19166     19168     19167     19166     19169
     19168     19166     19169     19169     19171     19172     19169     19171     19173
     19170     19169     19171     19171     19173     19174     19171     19173     19175
     19171     19173     19176     19172     19171     19173     19173     19176     19177
     19173     19176     19178     19174     19173     19175     19174     19173     19176
     19175     19173     19176     19176     19178     19179     19176     19178     19180
     19177     19176     19178     19178     19180     19181     19178     19180     19182
     19178     19180     19183     19179     19178     19180     19180     19183     19184
     19180     19183     19185     19181     19180     19182     19181     19180     19183
     19182     19180     19183     19183     19185     19186     19183     19185     19187
     19184     19183     19185     19185     19187     19188     19185     19187     19189
     19185     19187     19190     19186     19185     19187     19187     19190     19191
     19187     19190     19192     19188     19187     19189     19188     19187     19190
     19189     19187     19190     19190     19192     19193     19190     19192     19194
     19191     19190     19192     19192     19194     19195     19192     19194     19196
     19192     19194     19197     19193     19192     19194     19194     19197     19198
     19194     19197     19199     19194     19197     19200     19195     19194     19196
     19195     19194     19197     19196     19194     19197     19197     19200     19201
     19197     19200     19202     19197     19200     19203     19198     19197     19199
     19198     19197     19200     19199     19197     19200     19200     19203     19204
     19200     19203     19205     19200     19203     19206     19201     19200     19202
     19201     19200     19203     19202     19200     19203     19203     19206     19207
     19203     19206     19208     19203     19206     19209     19204     19203     19205
     19204     19203     19206     19205     19203     19206     19207     19206     19208
     19207     19206     19209     19208     19206     19209     19210     19213     19214
     19210     19213     19215     19210     19213     19216     19211     19210     19212
     19211     19210     19213     19212     19210     19213     19213     19216     19217
     19213     19216     19218     19213     19216     19219     19214     19213     19215
     19214     19213     19216     19215     19213     19216     19216     19219     19220
     19216     19219     19221     19216     19219     19222     19217     19216     19218
     19217     19216     19219     19218     19216     19219     19219     19222     19223
     19219     19222     19224     19219     19222     19225     19220     19219     19221
     19220     19219     19222     19221     19219     19222     19222     19225     19226
     19222     19225     19227     19222     19225     19228     19223     19222     19224
     19223     19222     19225     19224     19222     19225     19225     19228     19229
     19225     19228     19230     19225     19228     19231     19226     19225     19227
     19226     19225     19228     19227     19225     19228     19228     19231     19232
     19228     19231     19233     19228     19231     19234     19229     19228     19230
     19229     19228     19231     19230     19228     19231     19231     19234     19235
     19231     19234     19236     19231     19234     19237     19232     19231     19233
     19232     19231     19234     19233     19231     19234     19234     19237     19238
     19234     19237     19239     19234     19237     19240     19235     19234     19236
     19235     19234     19237     19236     19234     19237     19237     19240     19241
     19237     19240     19242     19237     19240     19243     19238     19237     19239
     19238     19237     19240     19239     19237     19240     19240     19243     19244
     19240     19243     19245     19240     19243     19246     19241     19240     19242
     19241     19240     19243     19242     19240     19243     19243     19246     19247
     19243     19246     19248     19243     19246     19249     19244     19243     19245
     19244     19243     19246     19245     19243     19246     19246     19249     19250
     19246     19249     19251     19246     19249     19252     19247     19246     19248
     19247     19246     19249     19248     19246     19249     19249     19252     19253
     19249     19252     19254     19249     19252     19255     19250     19249     19251
     19250     19249     19252     19251     19249     19252     19252     19255     19256
     19252     19255     19257     19252     19255     19258     19253     19252     19254
     19253     19252     19255     19254     19252     19255     19256     19255     19257
     19256     19255     19258     19257     19255     19258     19259     19263     19264
     19259     19263     19265     19259     19263     19268     19260     19259     19261
     19260     19259     19262     19260     19259     19263     19261     19259     19262
     19261     19259     19263     19262     19259     19263     19263     19265     19266
     19263     19265     19267     19263     19268     19269     19263     19268     19270
     19263     19268     19274     19264     19263     19265     19264     19263     19268
     19265     19263     19268     19266     19265     19267     19268     19274     19271
     19269     19268     19270     19269     19268     19274     19270     19268     19274
     19271     19275     19276     19272     19271     19273     19272     19271     19274
     19272     19271     19275     19273     19271     19274     19273     19271     19275
     19274     19271     19275     19275     19276     19277     19275     19276     19278
     19275     19276     19279     19276     19279     19280     19276     19279     19281
     19276     19279     19287     19277     19276     19278     19277     19276     19279
     19278     19276     19279     19279     19281     19282     19279     19287     19288
     19279     19287     19289     19279     19287     19290     19280     19279     19281
     19280     19279     19287     19281     19279     19287     19281     19282     19283
     19281     19282     19284     19282     19284     19285     19282     19284     19286
     19282     19284     19296     19283     19282     19284     19284     19296     19297
     19284     19296     19298     19284     19296     19299     19285     19284     19286
     19285     19284     19296     19286     19284     19296     19287     19290     19291
     19288     19287     19289     19288     19287     19290     19289     19287     19290
     19290     19291     19292     19290     19291     19293     19291     19293     19294
     19291     19293     19295     19291     19293     19343     19292     19291     19293
     19293     19343     19344     19293     19343     19345     19293     19343     19346
     19294     19293     19295     19294     19293     19343     19295     19293     19343
     19296     19299     19300     19296     19299     19301     19296     19299     19302
     19297     19296     19298     19297     19296     19299     19298     19296     19299
     19299     19302     19303     19299     19302     19304     19300     19299     19301
     19300     19299     19302     19301     19299     19302     19302     19304     19305
     19302     19304     19306     19303     19302     19304     19304     19306     19307
     19304     19306     19308     19304     19306     19309     19305     19304     19306
     19306     19309     19310     19306     19309     19311     19307     19306     19308
     19307     19306     19309     19308     19306     19309     19309     19311     19312
     19309     19311     19313     19310     19309     19311     19311     19313     19314
     19311     19313     19315     19311     19313     19316     19312     19311     19313
     19313     19316     19317     19313     19316     19318     19314     19313     19315
     19314     19313     19316     19315     19313     19316     19316     19318     19319
     19316     19318     19320     19317     19316     19318     19318     19320     19321
     19318     19320     19322     19318     19320     19323     19319     19318     19320
     19320     19323     19324     19320     19323     19325     19321     19320     19322
     19321     19320     19323     19322     19320     19323     19323     19325     19326
     19323     19325     19327     19324     19323     19325     19325     19327     19328
     19325     19327     19329     19325     19327     19330     19326     19325     19327
     19327     19330     19331     19327     19330     19332     19327     19330     19333
     19328     19327     19329     19328     19327     19330     19329     19327     19330
     19330     19333     19334     19330     19333     19335     19330     19333     19336
     19331     19330     19332     19331     19330     19333     19332     19330     19333
     19333     19336     19337     19333     19336     19338     19333     19336     19339
     19334     19333     19335     19334     19333     19336     19335     19333     19336
     19336     19339     19340     19336     19339     19341     19336     19339     19342
     19337     19336     19338     19337     19336     19339     19338     19336     19339
     19340     19339     19341     19340     19339     19342     19341     19339     19342
     19343     19346     19347     19343     19346     19348     19343     19346     19349
     19344     19343     19345     19344     19343     19346     19345     19343     19346
     19346     19349     19350     19346     19349     19351     19346     19349     19352
     19347     19346     19348     19347     19346     19349     19348     19346     19349
     19349     19352     19353     19349     19352     19354     19349     19352     19355
     19350     19349     19351     19350     19349     19352     19351     19349     19352
     19352     19355     19356     19352     19355     19357     19352     19355     19358
     19353     19352     19354     19353     19352     19355     19354     19352     19355
     19355     19358     19359     19355     19358     19360     19355     19358     19361
     19356     19355     19357     19356     19355     19358     19357     19355     19358
     19358     19361     19362     19358     19361     19363     19358     19361     19364
     19359     19358     19360     19359     19358     19361     19360     19358     19361
     19361     19364     19365     19361     19364     19366     19361     19364     19367
     19362     19361     19363     19362     19361     19364     19363     19361     19364
     19364     19367     19368     19364     19367     19369     19364     19367     19370
     19365     19364     19366     19365     19364     19367     19366     19364     19367
     19367     19370     19371     19367     19370     19372     19367     19370     19373
     19368     19367     19369     19368     19367     19370     19369     19367     19370
     19370     19373     19374     19370     19373     19375     19370     19373     19376
     19371     19370     19372     19371     19370     19373     19372     19370     19373
     19373     19376     19377     19373     19376     19378     19373     19376     19379
     19374     19373     19375     19374     19373     19376     19375     19373     19376
     19376     19379     19380     19376     19379     19381     19376     19379     19382
     19377     19376     19378     19377     19376     19379     19378     19376     19379
     19379     19382     19383     19379     19382     19384     19379     19382     19385
     19380     19379     19381     19380     19379     19382     19381     19379     19382
     19382     19385     19386     19382     19385     19387     19382     19385     19388
     19383     19382     19384     19383     19382     19385     19384     19382     19385
     19385     19388     19389     19385     19388     19390     19385     19388     19391
     19386     19385     19387     19386     19385     19388     19387     19385     19388
     19389     19388     19390     19389     19388     19391     19390     19388     19391
     19392     19393     19394     19392     19393     19395     19392     19393     19396
     19392     19397     19398     19392     19397     19399     19392     19397     19400
     19392     19401     19402     19392     19401     19403     19392     19401     19404
     19392     19405     19406     19392     19405     19407     19392     19405     19408
     19393     19392     19397     19393     19392     19401     19393     19392     19405
     19394     19393     19395     19394     19393     19396     19395     19393     19396
     19397     19392     19401     19397     19392     19405     19398     19397     19399
     19398     19397     19400     19399     19397     19400     19401     19392     19405
     19402     19401     19403     19402     19401     19404     19403     19401     19404
     19405     19408     19409     19405     19408     19410     19405     19408     19415
     19406     19405     19407     19406     19405     19408     19407     19405     19408
     19408     19415     19411     19409     19408     19410     19409     19408     19415
     19410     19408     19415     19411     19414     19416     19412     19411     19413
     19412     19411     19414     19412     19411     19415     19413     19411     19414
     19413     19411     19415     19414     19411     19415     19414     19416     19417
     19414     19416     19418     19414     19416     19421     19416     19421     19419
     19416     19421     19422     19416     19421     19423     19417     19416     19418
     19417     19416     19421     19418     19416     19421     19419     19421     19422
     19419     19421     19423     19419     19471     19472     19419     19471     19473
     19420     19419     19421     19420     19419     19471     19421     19419     19471
     19421     19423     19424     19421     19423     19425     19421     19423     19427
     19422     19421     19423     19423     19425     19426     19423     19427     19428
     19423     19427     19429     19424     19423     19425     19424     19423     19427
     19425     19423     19427     19427     19429     19430     19427     19429     19431
     19428     19427     19429     19429     19431     19432     19429     19431     19433
     19429     19431     19434     19430     19429     19431     19431     19434     19435
     19431     19434     19436     19431     19434     19437     19432     19431     19433
     19432     19431     19434     19433     19431     19434     19434     19437     19438
     19434     19437     19439     19434     19437     19440     19435     19434     19436
     19435     19434     19437     19436     19434     19437     19437     19440     19441
     19437     19440     19442     19437     19440     19443     19438     19437     19439
     19438     19437     19440     19439     19437     19440     19440     19443     19444
     19440     19443     19445     19440     19443     19446     19441     19440     19442
     19441     19440     19443     19442     19440     19443     19443     19446     19447
     19443     19446     19448     19443     19446     19449     19444     19443     19445
     19444     19443     19446     19445     19443     19446     19446     19449     19450
     19446     19449     19451     19446     19449     19452     19447     19446     19448
     19447     19446     19449     19448     19446     19449     19449     19452     19453
     19449     19452     19454     19449     19452     19455     19450     19449     19451
     19450     19449     19452     19451     19449     19452     19452     19455     19456
     19452     19455     19457     19452     19455     19458     19453     19452     19454
     19453     19452     19455     19454     19452     19455     19455     19458     19459
     19455     19458     19460     19455     19458     19461     19456     19455     19457
     19456     19455     19458     19457     19455     19458     19458     19461     19462
     19458     19461     19463     19458     19461     19464     19459     19458     19460
     19459     19458     19461     19460     19458     19461     19461     19464     19465
     19461     19464     19466     19461     19464     19467     19462     19461     19463
     19462     19461     19464     19463     19461     19464     19464     19467     19468
     19464     19467     19469     19464     19467     19470     19465     19464     19466
     19465     19464     19467     19466     19464     19467     19468     19467     19469
     19468     19467     19470     19469     19467     19470     19471     19473     19474
     19471     19473     19475     19471     19473     19476     19472     19471     19473
     19473     19476     19477     19473     19476     19478     19473     19476     19479
     19474     19473     19475     19474     19473     19476     19475     19473     19476
     19476     19479     19480     19476     19479     19481     19476     19479     19482
     19477     19476     19478     19477     19476     19479     19478     19476     19479
     19479     19482     19483     19479     19482     19484     19479     19482     19485
     19480     19479     19481     19480     19479     19482     19481     19479     19482
     19482     19485     19486     19482     19485     19487     19482     19485     19488
     19483     19482     19484     19483     19482     19485     19484     19482     19485
     19485     19488     19489     19485     19488     19490     19485     19488     19491
     19486     19485     19487     19486     19485     19488     19487     19485     19488
     19488     19491     19492     19488     19491     19493     19488     19491     19494
     19489     19488     19490     19489     19488     19491     19490     19488     19491
     19491     19494     19495     19491     19494     19496     19492     19491     19493
     19492     19491     19494     19493     19491     19494     19494     19496     19497
     19494     19496     19498     19495     19494     19496     19496     19498     19499
     19496     19498     19500     19496     19498     19501     19497     19496     19498
     19498     19501     19502     19498     19501     19503     19498     19501     19504
     19499     19498     19500     19499     19498     19501     19500     19498     19501
     19501     19504     19505     19501     19504     19506     19501     19504     19507
     19502     19501     19503     19502     19501     19504     19503     19501     19504
     19504     19507     19508     19504     19507     19509     19504     19507     19510
     19505     19504     19506     19505     19504     19507     19506     19504     19507
     19507     19510     19511     19507     19510     19512     19507     19510     19513
     19508     19507     19509     19508     19507     19510     19509     19507     19510
     19510     19513     19514     19510     19513     19515     19510     19513     19516
     19511     19510     19512     19511     19510     19513     19512     19510     19513
     19513     19516     19517     19513     19516     19518     19513     19516     19519
     19514     19513     19515     19514     19513     19516     19515     19513     19516
     19516     19519     19520     19516     19519     19521     19516     19519     19522
     19517     19516     19518     19517     19516     19519     19518     19516     19519
     19520     19519     19521     19520     19519     19522     19521     19519     19522
     19523     19527     19528     19523     19527     19529     19523     19527     19532
     19524     19523     19525     19524     19523     19526     19524     19523     19527
     19525     19523     19526     19525     19523     19527     19526     19523     19527
     19527     19529     19530     19527     19529     19531     19527     19532     19533
     19527     19532     19534     19527     19532     19538     19528     19527     19529
     19528     19527     19532     19529     19527     19532     19530     19529     19531
     19532     19538     19535     19533     19532     19534     19533     19532     19538
     19534     19532     19538     19535     19539     19540     19536     19535     19537
     19536     19535     19538     19536     19535     19539     19537     19535     19538
     19537     19535     19539     19538     19535     19539     19539     19540     19541
     19539     19540     19542     19539     19540     19543     19540     19543     19544
     19540     19543     19545     19540     19543     19551     19541     19540     19542
     19541     19540     19543     19542     19540     19543     19543     19545     19546
     19543     19551     19552     19543     19551     19553     19543     19551     19554
     19544     19543     19545     19544     19543     19551     19545     19543     19551
     19545     19546     19547     19545     19546     19548     19546     19548     19549
     19546     19548     19550     19546     19548     19560     19547     19546     19548
     19548     19560     19561     19548     19560     19562     19548     19560     19563
     19549     19548     19550     19549     19548     19560     19550     19548     19560
     19551     19554     19555     19552     19551     19553     19552     19551     19554
     19553     19551     19554     19554     19555     19556     19554     19555     19557
     19555     19557     19558     19555     19557     19559     19555     19557     19607
     19556     19555     19557     19557     19607     19608     19557     19607     19609
     19557     19607     19610     19558     19557     19559     19558     19557     19607
     19559     19557     19607     19560     19563     19564     19560     19563     19565
     19560     19563     19566     19561     19560     19562     19561     19560     19563
     19562     19560     19563     19563     19566     19567     19563     19566     19568
     19564     19563     19565     19564     19563     19566     19565     19563     19566
     19566     19568     19569     19566     19568     19570     19567     19566     19568
     19568     19570     19571     19568     19570     19572     19568     19570     19573
     19569     19568     19570     19570     19573     19574     19570     19573     19575
     19571     19570     19572     19571     19570     19573     19572     19570     19573
     19573     19575     19576     19573     19575     19577     19574     19573     19575
     19575     19577     19578     19575     19577     19579     19575     19577     19580
     19576     19575     19577     19577     19580     19581     19577     19580     19582
     19578     19577     19579     19578     19577     19580     19579     19577     19580
     19580     19582     19583     19580     19582     19584     19581     19580     19582
     19582     19584     19585     19582     19584     19586     19582     19584     19587
     19583     19582     19584     19584     19587     19588     19584     19587     19589
     19585     19584     19586     19585     19584     19587     19586     19584     19587
     19587     19589     19590     19587     19589     19591     19588     19587     19589
     19589     19591     19592     19589     19591     19593     19589     19591     19594
     19590     19589     19591     19591     19594     19595     19591     19594     19596
     19591     19594     19597     19592     19591     19593     19592     19591     19594
     19593     19591     19594     19594     19597     19598     19594     19597     19599
     19594     19597     19600     19595     19594     19596     19595     19594     19597
     19596     19594     19597     19597     19600     19601     19597     19600     19602
     19597     19600     19603     19598     19597     19599     19598     19597     19600
     19599     19597     19600     19600     19603     19604     19600     19603     19605
     19600     19603     19606     19601     19600     19602     19601     19600     19603
     19602     19600     19603     19604     19603     19605     19604     19603     19606
     19605     19603     19606     19607     19610     19611     19607     19610     19612
     19607     19610     19613     19608     19607     19609     19608     19607     19610
     19609     19607     19610     19610     19613     19614     19610     19613     19615
     19610     19613     19616     19611     19610     19612     19611     19610     19613
     19612     19610     19613     19613     19616     19617     19613     19616     19618
     19613     19616     19619     19614     19613     19615     19614     19613     19616
     19615     19613     19616     19616     19619     19620     19616     19619     19621
     19616     19619     19622     19617     19616     19618     19617     19616     19619
     19618     19616     19619     19619     19622     19623     19619     19622     19624
     19619     19622     19625     19620     19619     19621     19620     19619     19622
     19621     19619     19622     19622     19625     19626     19622     19625     19627
     19622     19625     19628     19623     19622     19624     19623     19622     19625
     19624     19622     19625     19625     19628     19629     19625     19628     19630
     19625     19628     19631     19626     19625     19627     19626     19625     19628
     19627     19625     19628     19628     19631     19632     19628     19631     19633
     19628     19631     19634     19629     19628     19630     19629     19628     19631
     19630     19628     19631     19631     19634     19635     19631     19634     19636
     19631     19634     19637     19632     19631     19633     19632     19631     19634
     19633     19631     19634     19634     19637     19638     19634     19637     19639
     19634     19637     19640     19635     19634     19636     19635     19634     19637
     19636     19634     19637     19637     19640     19641     19637     19640     19642
     19637     19640     19643     19638     19637     19639     19638     19637     19640
     19639     19637     19640     19640     19643     19644     19640     19643     19645
     19640     19643     19646     19641     19640     19642     19641     19640     19643
     19642     19640     19643     19643     19646     19647     19643     19646     19648
     19643     19646     19649     19644     19643     19645     19644     19643     19646
     19645     19643     19646     19646     19649     19650     19646     19649     19651
     19646     19649     19652     19647     19646     19648     19647     19646     19649
     19648     19646     19649     19649     19652     19653     19649     19652     19654
     19649     19652     19655     19650     19649     19651     19650     19649     19652
     19651     19649     19652     19653     19652     19654     19653     19652     19655
     19654     19652     19655     19656     19660     19661     19656     19660     19662
     19656     19660     19663     19657     19656     19658     19657     19656     19659
     19657     19656     19660     19658     19656     19659     19658     19656     19660
     19659     19656     19660     19660     19663     19664     19660     19663     19665
     19660     19663     19669     19661     19660     19662     19661     19660     19663
     19662     19660     19663     19663     19669     19666     19664     19663     19665
     19664     19663     19669     19665     19663     19669     19666     19670     19671
     19667     19666     19668     19667     19666     19669     19667     19666     19670
     19668     19666     19669     19668     19666     19670     19669     19666     19670
     19670     19671     19672     19670     19671     19673     19670     19671     19674
     19671     19674     19675     19671     19674     19676     19671     19674     19682
     19672     19671     19673     19672     19671     19674     19673     19671     19674
     19674     19676     19677     19674     19682     19683     19674     19682     19684
     19674     19682     19685     19675     19674     19676     19675     19674     19682
     19676     19674     19682     19676     19677     19678     19676     19677     19679
     19677     19679     19680     19677     19679     19681     19677     19679     19691
     19678     19677     19679     19679     19691     19692     19679     19691     19693
     19679     19691     19694     19680     19679     19681     19680     19679     19691
     19681     19679     19691     19682     19685     19686     19683     19682     19684
     19683     19682     19685     19684     19682     19685     19685     19686     19687
     19685     19686     19688     19686     19688     19689     19686     19688     19690
     19686     19688     19738     19687     19686     19688     19688     19738     19739
     19688     19738     19740     19688     19738     19741     19689     19688     19690
     19689     19688     19738     19690     19688     19738     19691     19694     19695
     19691     19694     19696     19691     19694     19697     19692     19691     19693
     19692     19691     19694     19693     19691     19694     19694     19697     19698
     19694     19697     19699     19695     19694     19696     19695     19694     19697
     19696     19694     19697     19697     19699     19700     19697     19699     19701
     19698     19697     19699     19699     19701     19702     19699     19701     19703
     19699     19701     19704     19700     19699     19701     19701     19704     19705
     19701     19704     19706     19702     19701     19703     19702     19701     19704
     19703     19701     19704     19704     19706     19707     19704     19706     19708
     19705     19704     19706     19706     19708     19709     19706     19708     19710
     19706     19708     19711     19707     19706     19708     19708     19711     19712
     19708     19711     19713     19709     19708     19710     19709     19708     19711
     19710     19708     19711     19711     19713     19714     19711     19713     19715
     19712     19711     19713     19713     19715     19716     19713     19715     19717
     19713     19715     19718     19714     19713     19715     19715     19718     19719
     19715     19718     19720     19716     19715     19717     19716     19715     19718
     19717     19715     19718     19718     19720     19721     19718     19720     19722
     19719     19718     19720     19720     19722     19723     19720     19722     19724
     19720     19722     19725     19721     19720     19722     19722     19725     19726
     19722     19725     19727     19722     19725     19728     19723     19722     19724
     19723     19722     19725     19724     19722     19725     19725     19728     19729
     19725     19728     19730     19725     19728     19731     19726     19725     19727
     19726     19725     19728     19727     19725     19728     19728     19731     19732
     19728     19731     19733     19728     19731     19734     19729     19728     19730
     19729     19728     19731     19730     19728     19731     19731     19734     19735
     19731     19734     19736     19731     19734     19737     19732     19731     19733
     19732     19731     19734     19733     19731     19734     19735     19734     19736
     19735     19734     19737     19736     19734     19737     19738     19741     19742
     19738     19741     19743     19738     19741     19744     19739     19738     19740
     19739     19738     19741     19740     19738     19741     19741     19744     19745
     19741     19744     19746     19741     19744     19747     19742     19741     19743
     19742     19741     19744     19743     19741     19744     19744     19747     19748
     19744     19747     19749     19744     19747     19750     19745     19744     19746
     19745     19744     19747     19746     19744     19747     19747     19750     19751
     19747     19750     19752     19747     19750     19753     19748     19747     19749
     19748     19747     19750     19749     19747     19750     19750     19753     19754
     19750     19753     19755     19750     19753     19756     19751     19750     19752
     19751     19750     19753     19752     19750     19753     19753     19756     19757
     19753     19756     19758     19753     19756     19759     19754     19753     19755
     19754     19753     19756     19755     19753     19756     19756     19759     19760
     19756     19759     19761     19756     19759     19762     19757     19756     19758
     19757     19756     19759     19758     19756     19759     19759     19762     19763
     19759     19762     19764     19759     19762     19765     19760     19759     19761
     19760     19759     19762     19761     19759     19762     19762     19765     19766
     19762     19765     19767     19762     19765     19768     19763     19762     19764
     19763     19762     19765     19764     19762     19765     19765     19768     19769
     19765     19768     19770     19765     19768     19771     19766     19765     19767
     19766     19765     19768     19767     19765     19768     19768     19771     19772
     19768     19771     19773     19768     19771     19774     19769     19768     19770
     19769     19768     19771     19770     19768     19771     19771     19774     19775
     19771     19774     19776     19771     19774     19777     19772     19771     19773
     19772     19771     19774     19773     19771     19774     19774     19777     19778
     19774     19777     19779     19774     19777     19780     19775     19774     19776
     19775     19774     19777     19776     19774     19777     19777     19780     19781
     19777     19780     19782     19777     19780     19783     19778     19777     19779
     19778     19777     19780     19779     19777     19780     19780     19783     19784
     19780     19783     19785     19780     19783     19786     19781     19780     19782
     19781     19780     19783     19782     19780     19783     19784     19783     19785
     19784     19783     19786     19785     19783     19786     19787     19789     19790
     19787     19791     19792     19787     19791     19793     19787     19791     19794
     19787     19833     19830     19787     19833     19834     19787     19833     19835
     19788     19787     19789     19788     19787     19791     19788     19787     19833
     19789     19787     19791     19789     19787     19833     19791     19787     19833
     19791     19794     19795     19791     19794     19825     19792     19791     19793
     19792     19791     19794     19793     19791     19794     19794     19795     19796
     19794     19795     19797     19794     19825     19823     19794     19825     19826
     19794     19825     19830     19795     19794     19825     19795     19797     19798
     19795     19797     19799     19795     19797     19800     19796     19795     19797
     19797     19800     19801     19797     19800     19802     19797     19800     19823
     19798     19797     19799     19798     19797     19800     19799     19797     19800
     19800     19802     19803     19800     19802     19804     19800     19802     19812
     19800     19823     19820     19800     19823     19824     19800     19823     19825
     19801     19800     19802     19801     19800     19823     19802     19800     19823
     19802     19804     19805     19802     19804     19806     19802     19804     19807
     19802     19812     19810     19802     19812     19813     19802     19812     19817
     19803     19802     19804     19803     19802     19812     19804     19802     19812
     19804     19807     19808     19804     19807     19809     19804     19807     19810
     19805     19804     19806     19805     19804     19807     19806     19804     19807
     19807     19810     19811     19807     19810     19812     19807     19810     19836
     19808     19807     19809     19808     19807     19810     19809     19807     19810
     19810     19812     19813     19810     19812     19817     19810     19836     19837
     19810     19836     19838     19810     19836     19842     19811     19810     19812
     19811     19810     19836     19812     19810     19836     19812     19813     19814
     19812     19813     19815     19812     19813     19816     19812     19817     19818
     19812     19817     19819     19812     19817     19820     19813     19812     19817
     19814     19813     19815     19814     19813     19816     19815     19813     19816
     19817     19820     19821     19817     19820     19822     19817     19820     19823
     19818     19817     19819     19818     19817     19820     19819     19817     19820
     19820     19823     19824     19820     19823     19825     19821     19820     19822
     19821     19820     19823     19822     19820     19823     19823     19825     19826
     19823     19825     19830     19824     19823     19825     19825     19826     19827
     19825     19826     19828     19825     19826     19829     19825     19830     19831
     19825     19830     19832     19825     19830     19833     19826     19825     19830
     19827     19826     19828     19827     19826     19829     19828     19826     19829
     19830     19833     19834     19830     19833     19835     19831     19830     19832
     19831     19830     19833     19832     19830     19833     19834     19833     19835
     19836     19838     19839     19836     19838     19840     19836     19838     19841
     19836     19842     19843     19836     19842     19844     19836     19842     19845
     19837     19836     19838     19837     19836     19842     19838     19836     19842
     19839     19838     19840     19839     19838     19841     19840     19838     19841
     19842     19845     19846     19842     19845     19847     19842     19845     19848
     19843     19842     19844     19843     19842     19845     19844     19842     19845
     19845     19848     19849     19845     19848     19850     19845     19848     19851
     19846     19845     19847     19846     19845     19848     19847     19845     19848
     19848     19851     19852     19848     19851     19853     19848     19851     19857
     19849     19848     19850     19849     19848     19851     19850     19848     19851
     19851     19853     19854     19851     19853     19855     19851     19853     19856
     19851     19857     19858     19851     19857     19859     19851     19857     19860
     19852     19851     19853     19852     19851     19857     19853     19851     19857
     19854     19853     19855     19854     19853     19856     19855     19853     19856
     19858     19857     19859     19858     19857     19860     19859     19857     19860
     19861     19863     19864     19861     19865     19866     19861     19865     19867
     19861     19865     19868     19861     19907     19904     19861     19907     19908
     19861     19907     19909     19862     19861     19863     19862     19861     19865
     19862     19861     19907     19863     19861     19865     19863     19861     19907
     19865     19861     19907     19865     19868     19869     19865     19868     19899
     19866     19865     19867     19866     19865     19868     19867     19865     19868
     19868     19869     19870     19868     19869     19871     19868     19899     19897
     19868     19899     19900     19868     19899     19904     19869     19868     19899
     19869     19871     19872     19869     19871     19873     19869     19871     19874
     19870     19869     19871     19871     19874     19875     19871     19874     19876
     19871     19874     19897     19872     19871     19873     19872     19871     19874
     19873     19871     19874     19874     19876     19877     19874     19876     19878
     19874     19876     19886     19874     19897     19894     19874     19897     19898
     19874     19897     19899     19875     19874     19876     19875     19874     19897
     19876     19874     19897     19876     19878     19879     19876     19878     19880
     19876     19878     19881     19876     19886     19884     19876     19886     19887
     19876     19886     19891     19877     19876     19878     19877     19876     19886
     19878     19876     19886     19878     19881     19882     19878     19881     19883
     19878     19881     19884     19879     19878     19880     19879     19878     19881
     19880     19878     19881     19881     19884     19885     19881     19884     19886
     19881     19884     19910     19882     19881     19883     19882     19881     19884
     19883     19881     19884     19884     19886     19887     19884     19886     19891
     19884     19910     19911     19884     19910     19912     19884     19910     19916
     19885     19884     19886     19885     19884     19910     19886     19884     19910
     19886     19887     19888     19886     19887     19889     19886     19887     19890
     19886     19891     19892     19886     19891     19893     19886     19891     19894
     19887     19886     19891     19888     19887     19889     19888     19887     19890
     19889     19887     19890     19891     19894     19895     19891     19894     19896
     19891     19894     19897     19892     19891     19893     19892     19891     19894
     19893     19891     19894     19894     19897     19898     19894     19897     19899
     19895     19894     19896     19895     19894     19897     19896     19894     19897
     19897     19899     19900     19897     19899     19904     19898     19897     19899
     19899     19900     19901     19899     19900     19902     19899     19900     19903
     19899     19904     19905     19899     19904     19906     19899     19904     19907
     19900     19899     19904     19901     19900     19902     19901     19900     19903
     19902     19900     19903     19904     19907     19908     19904     19907     19909
     19905     19904     19906     19905     19904     19907     19906     19904     19907
     19908     19907     19909     19910     19912     19913     19910     19912     19914
     19910     19912     19915     19910     19916     19917     19910     19916     19918
     19910     19916     19919     19911     19910     19912     19911     19910     19916
     19912     19910     19916     19913     19912     19914     19913     19912     19915
     19914     19912     19915     19916     19919     19920     19916     19919     19921
     19916     19919     19922     19917     19916     19918     19917     19916     19919
     19918     19916     19919     19919     19922     19923     19919     19922     19924
     19919     19922     19925     19920     19919     19921     19920     19919     19922
     19921     19919     19922     19922     19925     19926     19922     19925     19927
     19922     19925     19931     19923     19922     19924     19923     19922     19925
     19924     19922     19925     19925     19927     19928     19925     19927     19929
     19925     19927     19930     19925     19931     19932     19925     19931     19933
     19925     19931     19934     19926     19925     19927     19926     19925     19931
     19927     19925     19931     19928     19927     19929     19928     19927     19930
     19929     19927     19930     19932     19931     19933     19932     19931     19934
     19933     19931     19934     19935     19936     19937     19935     19936     19938
     19935     19936     19939     19935     19940     19941     19935     19940     19942
     19935     19940     19943     19935     19944     19945     19935     19944     19946
     19935     19944     19947     19935     19948     19949     19935     19948     19950
     19935     19948     19951     19936     19935     19940     19936     19935     19944
     19936     19935     19948     19937     19936     19938     19937     19936     19939
     19938     19936     19939     19940     19935     19944     19940     19935     19948
     19941     19940     19942     19941     19940     19943     19942     19940     19943
     19944     19935     19948     19945     19944     19946     19945     19944     19947
     19946     19944     19947     19948     19951     19952     19948     19951     19953
     19948     19951     19957     19949     19948     19950     19949     19948     19951
     19950     19948     19951     19951     19957     19954     19952     19951     19953
     19952     19951     19957     19953     19951     19957     19954     19958     19959
     19955     19954     19956     19955     19954     19957     19955     19954     19958
     19956     19954     19957     19956     19954     19958     19957     19954     19958
     19958     19959     19960     19958     19959     19961     19958     19959     19962
     19959     19962     19963     19959     19962     19964     19959     19962     19970
     19960     19959     19961     19960     19959     19962     19961     19959     19962
     19962     19964     19965     19962     19970     19971     19962     19970     19972
     19962     19970     19973     19963     19962     19964     19963     19962     19970
     19964     19962     19970     19964     19965     19966     19964     19965     19967
     19965     19967     19968     19965     19967     19969     19965     19967     19979
     19966     19965     19967     19967     19979     19980     19967     19979     19981
     19967     19979     19982     19968     19967     19969     19968     19967     19979
     19969     19967     19979     19970     19973     19974     19971     19970     19972
     19971     19970     19973     19972     19970     19973     19973     19974     19975
     19973     19974     19976     19974     19976     19977     19974     19976     19978
     19974     19976     20024     19975     19974     19976     19976     20024     20025
     19976     20024     20026     19976     20024     20027     19977     19976     19978
     19977     19976     20024     19978     19976     20024     19979     19982     19983
     19979     19982     19984     19979     19982     19985     19980     19979     19981
     19980     19979     19982     19981     19979     19982     19982     19985     19986
     19982     19985     19987     19982     19985     19988     19983     19982     19984
     19983     19982     19985     19984     19982     19985     19985     19988     19989
     19985     19988     19990     19985     19988     19991     19986     19985     19987
     19986     19985     19988     19987     19985     19988     19988     19991     19992
     19988     19991     19993     19988     19991     19994     19989     19988     19990
     19989     19988     19991     19990     19988     19991     19991     19994     19995
     19991     19994     19996     19991     19994     19997     19992     19991     19993
     19992     19991     19994     19993     19991     19994     19994     19997     19998
     19994     19997     19999     19995     19994     19996     19995     19994     19997
     19996     19994     19997     19997     19999     20000     19997     19999     20001
     19998     19997     19999     19999     20001     20002     19999     20001     20003
     19999     20001     20004     20000     19999     20001     20001     20004     20005
     20001     20004     20006     20002     20001     20003     20002     20001     20004
     20003     20001     20004     20004     20006     20007     20004     20006     20008
     20005     20004     20006     20006     20008     20009     20006     20008     20010
     20006     20008     20011     20007     20006     20008     20008     20011     20012
     20008     20011     20013     20008     20011     20014     20009     20008     20010
     20009     20008     20011     20010     20008     20011     20011     20014     20015
     20011     20014     20016     20011     20014     20017     20012     20011     20013
     20012     20011     20014     20013     20011     20014     20014     20017     20018
     20014     20017     20019     20014     20017     20020     20015     20014     20016
     20015     20014     20017     20016     20014     20017     20017     20020     20021
     20017     20020     20022     20017     20020     20023     20018     20017     20019
     20018     20017     20020     20019     20017     20020     20021     20020     20022
     20021     20020     20023     20022     20020     20023     20024     20027     20028
     20024     20027     20029     20024     20027     20030     20025     20024     20026
     20025     20024     20027     20026     20024     20027     20027     20030     20031
     20027     20030     20032     20027     20030     20033     20028     20027     20029
     20028     20027     20030     20029     20027     20030     20030     20033     20034
     20030     20033     20035     20030     20033     20036     20031     20030     20032
     20031     20030     20033     20032     20030     20033     20033     20036     20037
     20033     20036     20038     20033     20036     20039     20034     20033     20035
     20034     20033     20036     20035     20033     20036     20036     20039     20040
     20036     20039     20041     20036     20039     20042     20037     20036     20038
     20037     20036     20039     20038     20036     20039     20039     20042     20043
     20039     20042     20044     20039     20042     20045     20040     20039     20041
     20040     20039     20042     20041     20039     20042     20042     20045     20046
     20042     20045     20047     20042     20045     20048     20043     20042     20044
     20043     20042     20045     20044     20042     20045     20045     20048     20049
     20045     20048     20050     20045     20048     20051     20046     20045     20047
     20046     20045     20048     20047     20045     20048     20048     20051     20052
     20048     20051     20053     20048     20051     20054     20049     20048     20050
     20049     20048     20051     20050     20048     20051     20051     20054     20055
     20051     20054     20056     20051     20054     20057     20052     20051     20053
     20052     20051     20054     20053     20051     20054     20054     20057     20058
     20054     20057     20059     20054     20057     20060     20055     20054     20056
     20055     20054     20057     20056     20054     20057     20057     20060     20061
     20057     20060     20062     20057     20060     20063     20058     20057     20059
     20058     20057     20060     20059     20057     20060     20060     20063     20064
     20060     20063     20065     20060     20063     20066     20061     20060     20062
     20061     20060     20063     20062     20060     20063     20063     20066     20067
     20063     20066     20068     20063     20066     20069     20064     20063     20065
     20064     20063     20066     20065     20063     20066     20066     20069     20070
     20066     20069     20071     20066     20069     20072     20067     20066     20068
     20067     20066     20069     20068     20066     20069     20070     20069     20071
     20070     20069     20072     20071     20069     20072     20073     20075     20076
     20073     20077     20078     20073     20077     20079     20073     20077     20080
     20073     20119     20116     20073     20119     20120     20073     20119     20121
     20074     20073     20075     20074     20073     20077     20074     20073     20119
     20075     20073     20077     20075     20073     20119     20077     20073     20119
     20077     20080     20081     20077     20080     20111     20078     20077     20079
     20078     20077     20080     20079     20077     20080     20080     20081     20082
     20080     20081     20083     20080     20111     20109     20080     20111     20112
     20080     20111     20116     20081     20080     20111     20081     20083     20084
     20081     20083     20085     20081     20083     20086     20082     20081     20083
     20083     20086     20087     20083     20086     20088     20083     20086     20109
     20084     20083     20085     20084     20083     20086     20085     20083     20086
     20086     20088     20089     20086     20088     20090     20086     20088     20098
     20086     20109     20106     20086     20109     20110     20086     20109     20111
     20087     20086     20088     20087     20086     20109     20088     20086     20109
     20088     20090     20091     20088     20090     20092     20088     20090     20093
     20088     20098     20096     20088     20098     20099     20088     20098     20103
     20089     20088     20090     20089     20088     20098     20090     20088     20098
     20090     20093     20094     20090     20093     20095     20090     20093     20096
     20091     20090     20092     20091     20090     20093     20092     20090     20093
     20093     20096     20097     20093     20096     20098     20093     20096     20122
     20094     20093     20095     20094     20093     20096     20095     20093     20096
     20096     20098     20099     20096     20098     20103     20096     20122     20123
     20096     20122     20124     20096     20122     20128     20097     20096     20098
     20097     20096     20122     20098     20096     20122     20098     20099     20100
     20098     20099     20101     20098     20099     20102     20098     20103     20104
     20098     20103     20105     20098     20103     20106     20099     20098     20103
     20100     20099     20101     20100     20099     20102     20101     20099     20102
     20103     20106     20107     20103     20106     20108     20103     20106     20109
     20104     20103     20105     20104     20103     20106     20105     20103     20106
     20106     20109     20110     20106     20109     20111     20107     20106     20108
     20107     20106     20109     20108     20106     20109     20109     20111     20112
     20109     20111     20116     20110     20109     20111     20111     20112     20113
     20111     20112     20114     20111     20112     20115     20111     20116     20117
     20111     20116     20118     20111     20116     20119     20112     20111     20116
     20113     20112     20114     20113     20112     20115     20114     20112     20115
     20116     20119     20120     20116     20119     20121     20117     20116     20118
     20117     20116     20119     20118     20116     20119     20120     20119     20121
     20122     20124     20125     20122     20124     20126     20122     20124     20127
     20122     20128     20129     20122     20128     20130     20122     20128     20131
     20123     20122     20124     20123     20122     20128     20124     20122     20128
     20125     20124     20126     20125     20124     20127     20126     20124     20127
     20128     20131     20132     20128     20131     20133     20128     20131     20134
     20129     20128     20130     20129     20128     20131     20130     20128     20131
     20131     20134     20135     20131     20134     20136     20131     20134     20137
     20132     20131     20133     20132     20131     20134     20133     20131     20134
     20134     20137     20138     20134     20137     20139     20134     20137     20143
     20135     20134     20136     20135     20134     20137     20136     20134     20137
     20137     20139     20140     20137     20139     20141     20137     20139     20142
     20137     20143     20144     20137     20143     20145     20137     20143     20146
     20138     20137     20139     20138     20137     20143     20139     20137     20143
     20140     20139     20141     20140     20139     20142     20141     20139     20142
     20144     20143     20145     20144     20143     20146     20145     20143     20146
     20147     20151     20152     20147     20151     20153     20147     20151     20154
     20148     20147     20149     20148     20147     20150     20148     20147     20151
     20149     20147     20150     20149     20147     20151     20150     20147     20151
     20151     20154     20155     20151     20154     20156     20151     20154     20160
     20152     20151     20153     20152     20151     20154     20153     20151     20154
     20154     20160     20157     20155     20154     20156     20155     20154     20160
     20156     20154     20160     20157     20161     20162     20158     20157     20159
     20158     20157     20160     20158     20157     20161     20159     20157     20160
     20159     20157     20161     20160     20157     20161     20161     20162     20163
     20161     20162     20164     20161     20162     20165     20162     20165     20166
     20162     20165     20167     20162     20165     20173     20163     20162     20164
     20163     20162     20165     20164     20162     20165     20165     20167     20168
     20165     20173     20174     20165     20173     20175     20165     20173     20176
     20166     20165     20167     20166     20165     20173     20167     20165     20173
     20167     20168     20169     20167     20168     20170     20168     20170     20171
     20168     20170     20172     20168     20170     20182     20169     20168     20170
     20170     20182     20183     20170     20182     20184     20170     20182     20185
     20171     20170     20172     20171     20170     20182     20172     20170     20182
     20173     20176     20177     20174     20173     20175     20174     20173     20176
     20175     20173     20176     20176     20177     20178     20176     20177     20179
     20177     20179     20180     20177     20179     20181     20177     20179     20229
     20178     20177     20179     20179     20229     20230     20179     20229     20231
     20179     20229     20232     20180     20179     20181     20180     20179     20229
     20181     20179     20229     20182     20185     20186     20182     20185     20187
     20182     20185     20188     20183     20182     20184     20183     20182     20185
     20184     20182     20185     20185     20188     20189     20185     20188     20190
     20186     20185     20187     20186     20185     20188     20187     20185     20188
     20188     20190     20191     20188     20190     20192     20189     20188     20190
     20190     20192     20193     20190     20192     20194     20190     20192     20195
     20191     20190     20192     20192     20195     20196     20192     20195     20197
     20193     20192     20194     20193     20192     20195     20194     20192     20195
     20195     20197     20198     20195     20197     20199     20196     20195     20197
     20197     20199     20200     20197     20199     20201     20197     20199     20202
     20198     20197     20199     20199     20202     20203     20199     20202     20204
     20200     20199     20201     20200     20199     20202     20201     20199     20202
     20202     20204     20205     20202     20204     20206     20203     20202     20204
     20204     20206     20207     20204     20206     20208     20204     20206     20209
     20205     20204     20206     20206     20209     20210     20206     20209     20211
     20207     20206     20208     20207     20206     20209     20208     20206     20209
     20209     20211     20212     20209     20211     20213     20210     20209     20211
     20211     20213     20214     20211     20213     20215     20211     20213     20216
     20212     20211     20213     20213     20216     20217     20213     20216     20218
     20213     20216     20219     20214     20213     20215     20214     20213     20216
     20215     20213     20216     20216     20219     20220     20216     20219     20221
     20216     20219     20222     20217     20216     20218     20217     20216     20219
     20218     20216     20219     20219     20222     20223     20219     20222     20224
     20219     20222     20225     20220     20219     20221     20220     20219     20222
     20221     20219     20222     20222     20225     20226     20222     20225     20227
     20222     20225     20228     20223     20222     20224     20223     20222     20225
     20224     20222     20225     20226     20225     20227     20226     20225     20228
     20227     20225     20228     20229     20232     20233     20229     20232     20234
     20229     20232     20235     20230     20229     20231     20230     20229     20232
     20231     20229     20232     20232     20235     20236     20232     20235     20237
     20232     20235     20238     20233     20232     20234     20233     20232     20235
     20234     20232     20235     20235     20238     20239     20235     20238     20240
     20235     20238     20241     20236     20235     20237     20236     20235     20238
     20237     20235     20238     20238     20241     20242     20238     20241     20243
     20238     20241     20244     20239     20238     20240     20239     20238     20241
     20240     20238     20241     20241     20244     20245     20241     20244     20246
     20241     20244     20247     20242     20241     20243     20242     20241     20244
     20243     20241     20244     20244     20247     20248     20244     20247     20249
     20244     20247     20250     20245     20244     20246     20245     20244     20247
     20246     20244     20247     20247     20250     20251     20247     20250     20252
     20247     20250     20253     20248     20247     20249     20248     20247     20250
     20249     20247     20250     20250     20253     20254     20250     20253     20255
     20250     20253     20256     20251     20250     20252     20251     20250     20253
     20252     20250     20253     20253     20256     20257     20253     20256     20258
     20253     20256     20259     20254     20253     20255     20254     20253     20256
     20255     20253     20256     20256     20259     20260     20256     20259     20261
     20256     20259     20262     20257     20256     20258     20257     20256     20259
     20258     20256     20259     20259     20262     20263     20259     20262     20264
     20259     20262     20265     20260     20259     20261     20260     20259     20262
     20261     20259     20262     20262     20265     20266     20262     20265     20267
     20262     20265     20268     20263     20262     20264     20263     20262     20265
     20264     20262     20265     20265     20268     20269     20265     20268     20270
     20265     20268     20271     20266     20265     20267     20266     20265     20268
     20267     20265     20268     20268     20271     20272     20268     20271     20273
     20268     20271     20274     20269     20268     20270     20269     20268     20271
     20270     20268     20271     20271     20274     20275     20271     20274     20276
     20271     20274     20277     20272     20271     20273     20272     20271     20274
     20273     20271     20274     20275     20274     20276     20275     20274     20277
     20276     20274     20277     20278     20280     20281     20278     20282     20283
     20278     20282     20284     20278     20282     20285     20278     20324     20321
     20278     20324     20325     20278     20324     20326     20279     20278     20280
     20279     20278     20282     20279     20278     20324     20280     20278     20282
     20280     20278     20324     20282     20278     20324     20282     20285     20286
     20282     20285     20316     20283     20282     20284     20283     20282     20285
     20284     20282     20285     20285     20286     20287     20285     20286     20288
     20285     20316     20314     20285     20316     20317     20285     20316     20321
     20286     20285     20316     20286     20288     20289     20286     20288     20290
     20286     20288     20291     20287     20286     20288     20288     20291     20292
     20288     20291     20293     20288     20291     20314     20289     20288     20290
     20289     20288     20291     20290     20288     20291     20291     20293     20294
     20291     20293     20295     20291     20293     20303     20291     20314     20311
     20291     20314     20315     20291     20314     20316     20292     20291     20293
     20292     20291     20314     20293     20291     20314     20293     20295     20296
     20293     20295     20297     20293     20295     20298     20293     20303     20301
     20293     20303     20304     20293     20303     20308     20294     20293     20295
     20294     20293     20303     20295     20293     20303     20295     20298     20299
     20295     20298     20300     20295     20298     20301     20296     20295     20297
     20296     20295     20298     20297     20295     20298     20298     20301     20302
     20298     20301     20303     20298     20301     20327     20299     20298     20300
     20299     20298     20301     20300     20298     20301     20301     20303     20304
     20301     20303     20308     20301     20327     20328     20301     20327     20329
     20301     20327     20333     20302     20301     20303     20302     20301     20327
     20303     20301     20327     20303     20304     20305     20303     20304     20306
     20303     20304     20307     20303     20308     20309     20303     20308     20310
     20303     20308     20311     20304     20303     20308     20305     20304     20306
     20305     20304     20307     20306     20304     20307     20308     20311     20312
     20308     20311     20313     20308     20311     20314     20309     20308     20310
     20309     20308     20311     20310     20308     20311     20311     20314     20315
     20311     20314     20316     20312     20311     20313     20312     20311     20314
     20313     20311     20314     20314     20316     20317     20314     20316     20321
     20315     20314     20316     20316     20317     20318     20316     20317     20319
     20316     20317     20320     20316     20321     20322     20316     20321     20323
     20316     20321     20324     20317     20316     20321     20318     20317     20319
     20318     20317     20320     20319     20317     20320     20321     20324     20325
     20321     20324     20326     20322     20321     20323     20322     20321     20324
     20323     20321     20324     20325     20324     20326     20327     20329     20330
     20327     20329     20331     20327     20329     20332     20327     20333     20334
     20327     20333     20335     20327     20333     20336     20328     20327     20329
     20328     20327     20333     20329     20327     20333     20330     20329     20331
     20330     20329     20332     20331     20329     20332     20333     20336     20337
     20333     20336     20338     20333     20336     20339     20334     20333     20335
     20334     20333     20336     20335     20333     20336     20336     20339     20340
     20336     20339     20341     20336     20339     20342     20337     20336     20338
     20337     20336     20339     20338     20336     20339     20339     20342     20343
     20339     20342     20344     20339     20342     20348     20340     20339     20341
     20340     20339     20342     20341     20339     20342     20342     20344     20345
     20342     20344     20346     20342     20344     20347     20342     20348     20349
     20342     20348     20350     20342     20348     20351     20343     20342     20344
     20343     20342     20348     20344     20342     20348     20345     20344     20346
     20345     20344     20347     20346     20344     20347     20349     20348     20350
     20349     20348     20351     20350     20348     20351     20352     20354     20355
     20352     20356     20357     20352     20356     20358     20352     20356     20359
     20352     20398     20395     20352     20398     20399     20352     20398     20400
     20353     20352     20354     20353     20352     20356     20353     20352     20398
     20354     20352     20356     20354     20352     20398     20356     20352     20398
     20356     20359     20360     20356     20359     20390     20357     20356     20358
     20357     20356     20359     20358     20356     20359     20359     20360     20361
     20359     20360     20362     20359     20390     20388     20359     20390     20391
     20359     20390     20395     20360     20359     20390     20360     20362     20363
     20360     20362     20364     20360     20362     20365     20361     20360     20362
     20362     20365     20366     20362     20365     20367     20362     20365     20388
     20363     20362     20364     20363     20362     20365     20364     20362     20365
     20365     20367     20368     20365     20367     20369     20365     20367     20377
     20365     20388     20385     20365     20388     20389     20365     20388     20390
     20366     20365     20367     20366     20365     20388     20367     20365     20388
     20367     20369     20370     20367     20369     20371     20367     20369     20372
     20367     20377     20375     20367     20377     20378     20367     20377     20382
     20368     20367     20369     20368     20367     20377     20369     20367     20377
     20369     20372     20373     20369     20372     20374     20369     20372     20375
     20370     20369     20371     20370     20369     20372     20371     20369     20372
     20372     20375     20376     20372     20375     20377     20372     20375     20401
     20373     20372     20374     20373     20372     20375     20374     20372     20375
     20375     20377     20378     20375     20377     20382     20375     20401     20402
     20375     20401     20403     20375     20401     20407     20376     20375     20377
     20376     20375     20401     20377     20375     20401     20377     20378     20379
     20377     20378     20380     20377     20378     20381     20377     20382     20383
     20377     20382     20384     20377     20382     20385     20378     20377     20382
     20379     20378     20380     20379     20378     20381     20380     20378     20381
     20382     20385     20386     20382     20385     20387     20382     20385     20388
     20383     20382     20384     20383     20382     20385     20384     20382     20385
     20385     20388     20389     20385     20388     20390     20386     20385     20387
     20386     20385     20388     20387     20385     20388     20388     20390     20391
     20388     20390     20395     20389     20388     20390     20390     20391     20392
     20390     20391     20393     20390     20391     20394     20390     20395     20396
     20390     20395     20397     20390     20395     20398     20391     20390     20395
     20392     20391     20393     20392     20391     20394     20393     20391     20394
     20395     20398     20399     20395     20398     20400     20396     20395     20397
     20396     20395     20398     20397     20395     20398     20399     20398     20400
     20401     20403     20404     20401     20403     20405     20401     20403     20406
     20401     20407     20408     20401     20407     20409     20401     20407     20410
     20402     20401     20403     20402     20401     20407     20403     20401     20407
     20404     20403     20405     20404     20403     20406     20405     20403     20406
     20407     20410     20411     20407     20410     20412     20407     20410     20413
     20408     20407     20409     20408     20407     20410     20409     20407     20410
     20410     20413     20414     20410     20413     20415     20410     20413     20416
     20411     20410     20412     20411     20410     20413     20412     20410     20413
     20413     20416     20417     20413     20416     20418     20413     20416     20422
     20414     20413     20415     20414     20413     20416     20415     20413     20416
     20416     20418     20419     20416     20418     20420     20416     20418     20421
     20416     20422     20423     20416     20422     20424     20416     20422     20425
     20417     20416     20418     20417     20416     20422     20418     20416     20422
     20419     20418     20420     20419     20418     20421     20420     20418     20421
     20423     20422     20424     20423     20422     20425     20424     20422     20425
     20426     20430     20431     20426     20430     20432     20426     20430     20433
     20427     20426     20428     20427     20426     20429     20427     20426     20430
     20428     20426     20429     20428     20426     20430     20429     20426     20430
     20430     20433     20434     20430     20433     20435     20430     20433     20439
     20431     20430     20432     20431     20430     20433     20432     20430     20433
     20433     20439     20436     20434     20433     20435     20434     20433     20439
     20435     20433     20439     20436     20440     20441     20437     20436     20438
     20437     20436     20439     20437     20436     20440     20438     20436     20439
     20438     20436     20440     20439     20436     20440     20440     20441     20442
     20440     20441     20443     20440     20441     20444     20441     20444     20445
     20441     20444     20446     20441     20444     20452     20442     20441     20443
     20442     20441     20444     20443     20441     20444     20444     20446     20447
     20444     20452     20453     20444     20452     20454     20444     20452     20455
     20445     20444     20446     20445     20444     20452     20446     20444     20452
     20446     20447     20448     20446     20447     20449     20447     20449     20450
     20447     20449     20451     20447     20449     20461     20448     20447     20449
     20449     20461     20462     20449     20461     20463     20449     20461     20464
     20450     20449     20451     20450     20449     20461     20451     20449     20461
     20452     20455     20456     20453     20452     20454     20453     20452     20455
     20454     20452     20455     20455     20456     20457     20455     20456     20458
     20456     20458     20459     20456     20458     20460     20456     20458     20508
     20457     20456     20458     20458     20508     20509     20458     20508     20510
     20458     20508     20511     20459     20458     20460     20459     20458     20508
     20460     20458     20508     20461     20464     20465     20461     20464     20466
     20461     20464     20467     20462     20461     20463     20462     20461     20464
     20463     20461     20464     20464     20467     20468     20464     20467     20469
     20465     20464     20466     20465     20464     20467     20466     20464     20467
     20467     20469     20470     20467     20469     20471     20468     20467     20469
     20469     20471     20472     20469     20471     20473     20469     20471     20474
     20470     20469     20471     20471     20474     20475     20471     20474     20476
     20472     20471     20473     20472     20471     20474     20473     20471     20474
     20474     20476     20477     20474     20476     20478     20475     20474     20476
     20476     20478     20479     20476     20478     20480     20476     20478     20481
     20477     20476     20478     20478     20481     20482     20478     20481     20483
     20479     20478     20480     20479     20478     20481     20480     20478     20481
     20481     20483     20484     20481     20483     20485     20482     20481     20483
     20483     20485     20486     20483     20485     20487     20483     20485     20488
     20484     20483     20485     20485     20488     20489     20485     20488     20490
     20486     20485     20487     20486     20485     20488     20487     20485     20488
     20488     20490     20491     20488     20490     20492     20489     20488     20490
     20490     20492     20493     20490     20492     20494     20490     20492     20495
     20491     20490     20492     20492     20495     20496     20492     20495     20497
     20492     20495     20498     20493     20492     20494     20493     20492     20495
     20494     20492     20495     20495     20498     20499     20495     20498     20500
     20495     20498     20501     20496     20495     20497     20496     20495     20498
     20497     20495     20498     20498     20501     20502     20498     20501     20503
     20498     20501     20504     20499     20498     20500     20499     20498     20501
     20500     20498     20501     20501     20504     20505     20501     20504     20506
     20501     20504     20507     20502     20501     20503     20502     20501     20504
     20503     20501     20504     20505     20504     20506     20505     20504     20507
     20506     20504     20507     20508     20511     20512     20508     20511     20513
     20508     20511     20514     20509     20508     20510     20509     20508     20511
     20510     20508     20511     20511     20514     20515     20511     20514     20516
     20511     20514     20517     20512     20511     20513     20512     20511     20514
     20513     20511     20514     20514     20517     20518     20514     20517     20519
     20514     20517     20520     20515     20514     20516     20515     20514     20517
     20516     20514     20517     20517     20520     20521     20517     20520     20522
     20517     20520     20523     20518     20517     20519     20518     20517     20520
     20519     20517     20520     20520     20523     20524     20520     20523     20525
     20520     20523     20526     20521     20520     20522     20521     20520     20523
     20522     20520     20523     20523     20526     20527     20523     20526     20528
     20523     20526     20529     20524     20523     20525     20524     20523     20526
     20525     20523     20526     20526     20529     20530     20526     20529     20531
     20526     20529     20532     20527     20526     20528     20527     20526     20529
     20528     20526     20529     20529     20532     20533     20529     20532     20534
     20529     20532     20535     20530     20529     20531     20530     20529     20532
     20531     20529     20532     20532     20535     20536     20532     20535     20537
     20532     20535     20538     20533     20532     20534     20533     20532     20535
     20534     20532     20535     20535     20538     20539     20535     20538     20540
     20535     20538     20541     20536     20535     20537     20536     20535     20538
     20537     20535     20538     20538     20541     20542     20538     20541     20543
     20538     20541     20544     20539     20538     20540     20539     20538     20541
     20540     20538     20541     20541     20544     20545     20541     20544     20546
     20541     20544     20547     20542     20541     20543     20542     20541     20544
     20543     20541     20544     20544     20547     20548     20544     20547     20549
     20544     20547     20550     20545     20544     20546     20545     20544     20547
     20546     20544     20547     20547     20550     20551     20547     20550     20552
     20547     20550     20553     20548     20547     20549     20548     20547     20550
     20549     20547     20550     20550     20553     20554     20550     20553     20555
     20550     20553     20556     20551     20550     20552     20551     20550     20553
     20552     20550     20553     20554     20553     20555     20554     20553     20556
     20555     20553     20556     20557     20558     20559     20557     20558     20560
     20557     20558     20561     20557     20562     20563     20557     20562     20564
     20557     20562     20565     20557     20566     20567     20557     20566     20568
     20557     20566     20569     20557     20570     20571     20557     20570     20572
     20557     20570     20573     20558     20557     20562     20558     20557     20566
     20558     20557     20570     20559     20558     20560     20559     20558     20561
     20560     20558     20561     20562     20557     20566     20562     20557     20570
     20563     20562     20564     20563     20562     20565     20564     20562     20565
     20566     20557     20570     20567     20566     20568     20567     20566     20569
     20568     20566     20569     20570     20573     20574     20570     20573     20575
     20570     20573     20579     20571     20570     20572     20571     20570     20573
     20572     20570     20573     20573     20579     20576     20574     20573     20575
     20574     20573     20579     20575     20573     20579     20576     20580     20581
     20577     20576     20578     20577     20576     20579     20577     20576     20580
     20578     20576     20579     20578     20576     20580     20579     20576     20580
     20580     20581     20582     20580     20581     20583     20580     20581     20584
     20581     20584     20585     20581     20584     20586     20581     20584     20592
     20582     20581     20583     20582     20581     20584     20583     20581     20584
     20584     20586     20587     20584     20592     20593     20584     20592     20594
     20584     20592     20595     20585     20584     20586     20585     20584     20592
     20586     20584     20592     20586     20587     20588     20586     20587     20589
     20587     20589     20590     20587     20589     20591     20587     20589     20601
     20588     20587     20589     20589     20601     20602     20589     20601     20603
     20589     20601     20604     20590     20589     20591     20590     20589     20601
     20591     20589     20601     20592     20595     20596     20593     20592     20594
     20593     20592     20595     20594     20592     20595     20595     20596     20597
     20595     20596     20598     20596     20598     20599     20596     20598     20600
     20596     20598     20646     20597     20596     20598     20598     20646     20647
     20598     20646     20648     20598     20646     20649     20599     20598     20600
     20599     20598     20646     20600     20598     20646     20601     20604     20605
     20601     20604     20606     20601     20604     20607     20602     20601     20603
     20602     20601     20604     20603     20601     20604     20604     20607     20608
     20604     20607     20609     20604     20607     20610     20605     20604     20606
     20605     20604     20607     20606     20604     20607     20607     20610     20611
     20607     20610     20612     20607     20610     20613     20608     20607     20609
     20608     20607     20610     20609     20607     20610     20610     20613     20614
     20610     20613     20615     20610     20613     20616     20611     20610     20612
     20611     20610     20613     20612     20610     20613     20613     20616     20617
     20613     20616     20618     20613     20616     20619     20614     20613     20615
     20614     20613     20616     20615     20613     20616     20616     20619     20620
     20616     20619     20621     20617     20616     20618     20617     20616     20619
     20618     20616     20619     20619     20621     20622     20619     20621     20623
     20620     20619     20621     20621     20623     20624     20621     20623     20625
     20621     20623     20626     20622     20621     20623     20623     20626     20627
     20623     20626     20628     20624     20623     20625     20624     20623     20626
     20625     20623     20626     20626     20628     20629     20626     20628     20630
     20627     20626     20628     20628     20630     20631     20628     20630     20632
     20628     20630     20633     20629     20628     20630     20630     20633     20634
     20630     20633     20635     20630     20633     20636     20631     20630     20632
     20631     20630     20633     20632     20630     20633     20633     20636     20637
     20633     20636     20638     20633     20636     20639     20634     20633     20635
     20634     20633     20636     20635     20633     20636     20636     20639     20640
     20636     20639     20641     20636     20639     20642     20637     20636     20638
     20637     20636     20639     20638     20636     20639     20639     20642     20643
     20639     20642     20644     20639     20642     20645     20640     20639     20641
     20640     20639     20642     20641     20639     20642     20643     20642     20644
     20643     20642     20645     20644     20642     20645     20646     20649     20650
     20646     20649     20651     20646     20649     20652     20647     20646     20648
     20647     20646     20649     20648     20646     20649     20649     20652     20653
     20649     20652     20654     20649     20652     20655     20650     20649     20651
     20650     20649     20652     20651     20649     20652     20652     20655     20656
     20652     20655     20657     20652     20655     20658     20653     20652     20654
     20653     20652     20655     20654     20652     20655     20655     20658     20659
     20655     20658     20660     20655     20658     20661     20656     20655     20657
     20656     20655     20658     20657     20655     20658     20658     20661     20662
     20658     20661     20663     20658     20661     20664     20659     20658     20660
     20659     20658     20661     20660     20658     20661     20661     20664     20665
     20661     20664     20666     20661     20664     20667     20662     20661     20663
     20662     20661     20664     20663     20661     20664     20664     20667     20668
     20664     20667     20669     20664     20667     20670     20665     20664     20666
     20665     20664     20667     20666     20664     20667     20667     20670     20671
     20667     20670     20672     20667     20670     20673     20668     20667     20669
     20668     20667     20670     20669     20667     20670     20670     20673     20674
     20670     20673     20675     20670     20673     20676     20671     20670     20672
     20671     20670     20673     20672     20670     20673     20673     20676     20677
     20673     20676     20678     20673     20676     20679     20674     20673     20675
     20674     20673     20676     20675     20673     20676     20676     20679     20680
     20676     20679     20681     20676     20679     20682     20677     20676     20678
     20677     20676     20679     20678     20676     20679     20679     20682     20683
     20679     20682     20684     20679     20682     20685     20680     20679     20681
     20680     20679     20682     20681     20679     20682     20682     20685     20686
     20682     20685     20687     20682     20685     20688     20683     20682     20684
     20683     20682     20685     20684     20682     20685     20685     20688     20689
     20685     20688     20690     20685     20688     20691     20686     20685     20687
     20686     20685     20688     20687     20685     20688     20688     20691     20692
     20688     20691     20693     20688     20691     20694     20689     20688     20690
     20689     20688     20691     20690     20688     20691     20692     20691     20693
     20692     20691     20694     20693     20691     20694     20695     20697     20698
     20695     20699     20700     20695     20699     20701     20695     20699     20702
     20695     20741     20738     20695     20741     20742     20695     20741     20743
     20696     20695     20697     20696     20695     20699     20696     20695     20741
     20697     20695     20699     20697     20695     20741     20699     20695     20741
     20699     20702     20703     20699     20702     20733     20700     20699     20701
     20700     20699     20702     20701     20699     20702     20702     20703     20704
     20702     20703     20705     20702     20733     20731     20702     20733     20734
     20702     20733     20738     20703     20702     20733     20703     20705     20706
     20703     20705     20707     20703     20705     20708     20704     20703     20705
     20705     20708     20709     20705     20708     20710     20705     20708     20731
     20706     20705     20707     20706     20705     20708     20707     20705     20708
     20708     20710     20711     20708     20710     20712     20708     20710     20720
     20708     20731     20728     20708     20731     20732     20708     20731     20733
     20709     20708     20710     20709     20708     20731     20710     20708     20731
     20710     20712     20713     20710     20712     20714     20710     20712     20715
     20710     20720     20718     20710     20720     20721     20710     20720     20725
     20711     20710     20712     20711     20710     20720     20712     20710     20720
     20712     20715     20716     20712     20715     20717     20712     20715     20718
     20713     20712     20714     20713     20712     20715     20714     20712     20715
     20715     20718     20719     20715     20718     20720     20715     20718     20744
     20716     20715     20717     20716     20715     20718     20717     20715     20718
     20718     20720     20721     20718     20720     20725     20718     20744     20745
     20718     20744     20746     20718     20744     20750     20719     20718     20720
     20719     20718     20744     20720     20718     20744     20720     20721     20722
     20720     20721     20723     20720     20721     20724     20720     20725     20726
     20720     20725     20727     20720     20725     20728     20721     20720     20725
     20722     20721     20723     20722     20721     20724     20723     20721     20724
     20725     20728     20729     20725     20728     20730     20725     20728     20731
     20726     20725     20727     20726     20725     20728     20727     20725     20728
     20728     20731     20732     20728     20731     20733     20729     20728     20730
     20729     20728     20731     20730     20728     20731     20731     20733     20734
     20731     20733     20738     20732     20731     20733     20733     20734     20735
     20733     20734     20736     20733     20734     20737     20733     20738     20739
     20733     20738     20740     20733     20738     20741     20734     20733     20738
     20735     20734     20736     20735     20734     20737     20736     20734     20737
     20738     20741     20742     20738     20741     20743     20739     20738     20740
     20739     20738     20741     20740     20738     20741     20742     20741     20743
     20744     20746     20747     20744     20746     20748     20744     20746     20749
     20744     20750     20751     20744     20750     20752     20744     20750     20753
     20745     20744     20746     20745     20744     20750     20746     20744     20750
     20747     20746     20748     20747     20746     20749     20748     20746     20749
     20750     20753     20754     20750     20753     20755     20750     20753     20756
     20751     20750     20752     20751     20750     20753     20752     20750     20753
     20753     20756     20757     20753     20756     20758     20753     20756     20759
     20754     20753     20755     20754     20753     20756     20755     20753     20756
     20756     20759     20760     20756     20759     20761     20756     20759     20765
     20757     20756     20758     20757     20756     20759     20758     20756     20759
     20759     20761     20762     20759     20761     20763     20759     20761     20764
     20759     20765     20766     20759     20765     20767     20759     20765     20768
     20760     20759     20761     20760     20759     20765     20761     20759     20765
     20762     20761     20763     20762     20761     20764     20763     20761     20764
     20766     20765     20767     20766     20765     20768     20767     20765     20768
     20769     20773     20774     20769     20773     20775     20769     20773     20776
     20770     20769     20771     20770     20769     20772     20770     20769     20773
     20771     20769     20772     20771     20769     20773     20772     20769     20773
     20773     20776     20777     20773     20776     20778     20773     20776     20782
     20774     20773     20775     20774     20773     20776     20775     20773     20776
     20776     20782     20779     20777     20776     20778     20777     20776     20782
     20778     20776     20782     20779     20783     20784     20780     20779     20781
     20780     20779     20782     20780     20779     20783     20781     20779     20782
     20781     20779     20783     20782     20779     20783     20783     20784     20785
     20783     20784     20786     20783     20784     20787     20784     20787     20788
     20784     20787     20789     20784     20787     20795     20785     20784     20786
     20785     20784     20787     20786     20784     20787     20787     20789     20790
     20787     20795     20796     20787     20795     20797     20787     20795     20798
     20788     20787     20789     20788     20787     20795     20789     20787     20795
     20789     20790     20791     20789     20790     20792     20790     20792     20793
     20790     20792     20794     20790     20792     20804     20791     20790     20792
     20792     20804     20805     20792     20804     20806     20792     20804     20807
     20793     20792     20794     20793     20792     20804     20794     20792     20804
     20795     20798     20799     20796     20795     20797     20796     20795     20798
     20797     20795     20798     20798     20799     20800     20798     20799     20801
     20799     20801     20802     20799     20801     20803     20799     20801     20851
     20800     20799     20801     20801     20851     20852     20801     20851     20853
     20801     20851     20854     20802     20801     20803     20802     20801     20851
     20803     20801     20851     20804     20807     20808     20804     20807     20809
     20804     20807     20810     20805     20804     20806     20805     20804     20807
     20806     20804     20807     20807     20810     20811     20807     20810     20812
     20808     20807     20809     20808     20807     20810     20809     20807     20810
     20810     20812     20813     20810     20812     20814     20811     20810     20812
     20812     20814     20815     20812     20814     20816     20812     20814     20817
     20813     20812     20814     20814     20817     20818     20814     20817     20819
     20815     20814     20816     20815     20814     20817     20816     20814     20817
     20817     20819     20820     20817     20819     20821     20818     20817     20819
     20819     20821     20822     20819     20821     20823     20819     20821     20824
     20820     20819     20821     20821     20824     20825     20821     20824     20826
     20822     20821     20823     20822     20821     20824     20823     20821     20824
     20824     20826     20827     20824     20826     20828     20825     20824     20826
     20826     20828     20829     20826     20828     20830     20826     20828     20831
     20827     20826     20828     20828     20831     20832     20828     20831     20833
     20829     20828     20830     20829     20828     20831     20830     20828     20831
     20831     20833     20834     20831     20833     20835     20832     20831     20833
     20833     20835     20836     20833     20835     20837     20833     20835     20838
     20834     20833     20835     20835     20838     20839     20835     20838     20840
     20835     20838     20841     20836     20835     20837     20836     20835     20838
     20837     20835     20838     20838     20841     20842     20838     20841     20843
     20838     20841     20844     20839     20838     20840     20839     20838     20841
     20840     20838     20841     20841     20844     20845     20841     20844     20846
     20841     20844     20847     20842     20841     20843     20842     20841     20844
     20843     20841     20844     20844     20847     20848     20844     20847     20849
     20844     20847     20850     20845     20844     20846     20845     20844     20847
     20846     20844     20847     20848     20847     20849     20848     20847     20850
     20849     20847     20850     20851     20854     20855     20851     20854     20856
     20851     20854     20857     20852     20851     20853     20852     20851     20854
     20853     20851     20854     20854     20857     20858     20854     20857     20859
     20854     20857     20860     20855     20854     20856     20855     20854     20857
     20856     20854     20857     20857     20860     20861     20857     20860     20862
     20857     20860     20863     20858     20857     20859     20858     20857     20860
     20859     20857     20860     20860     20863     20864     20860     20863     20865
     20860     20863     20866     20861     20860     20862     20861     20860     20863
     20862     20860     20863     20863     20866     20867     20863     20866     20868
     20863     20866     20869     20864     20863     20865     20864     20863     20866
     20865     20863     20866     20866     20869     20870     20866     20869     20871
     20866     20869     20872     20867     20866     20868     20867     20866     20869
     20868     20866     20869     20869     20872     20873     20869     20872     20874
     20869     20872     20875     20870     20869     20871     20870     20869     20872
     20871     20869     20872     20872     20875     20876     20872     20875     20877
     20872     20875     20878     20873     20872     20874     20873     20872     20875
     20874     20872     20875     20875     20878     20879     20875     20878     20880
     20875     20878     20881     20876     20875     20877     20876     20875     20878
     20877     20875     20878     20878     20881     20882     20878     20881     20883
     20878     20881     20884     20879     20878     20880     20879     20878     20881
     20880     20878     20881     20881     20884     20885     20881     20884     20886
     20881     20884     20887     20882     20881     20883     20882     20881     20884
     20883     20881     20884     20884     20887     20888     20884     20887     20889
     20884     20887     20890     20885     20884     20886     20885     20884     20887
     20886     20884     20887     20887     20890     20891     20887     20890     20892
     20887     20890     20893     20888     20887     20889     20888     20887     20890
     20889     20887     20890     20890     20893     20894     20890     20893     20895
     20890     20893     20896     20891     20890     20892     20891     20890     20893
     20892     20890     20893     20893     20896     20897     20893     20896     20898
     20893     20896     20899     20894     20893     20895     20894     20893     20896
     20895     20893     20896     20897     20896     20898     20897     20896     20899
     20898     20896     20899     20900     20904     20905     20900     20904     20906
     20900     20904     20907     20901     20900     20902     20901     20900     20903
     20901     20900     20904     20902     20900     20903     20902     20900     20904
     20903     20900     20904     20904     20907     20908     20904     20907     20909
     20904     20907     20913     20905     20904     20906     20905     20904     20907
     20906     20904     20907     20907     20913     20910     20908     20907     20909
     20908     20907     20913     20909     20907     20913     20910     20914     20915
     20911     20910     20912     20911     20910     20913     20911     20910     20914
     20912     20910     20913     20912     20910     20914     20913     20910     20914
     20914     20915     20916     20914     20915     20917     20914     20915     20918
     20915     20918     20919     20915     20918     20920     20915     20918     20926
     20916     20915     20917     20916     20915     20918     20917     20915     20918
     20918     20920     20921     20918     20926     20927     20918     20926     20928
     20918     20926     20929     20919     20918     20920     20919     20918     20926
     20920     20918     20926     20920     20921     20922     20920     20921     20923
     20921     20923     20924     20921     20923     20925     20921     20923     20935
     20922     20921     20923     20923     20935     20936     20923     20935     20937
     20923     20935     20938     20924     20923     20925     20924     20923     20935
     20925     20923     20935     20926     20929     20930     20927     20926     20928
     20927     20926     20929     20928     20926     20929     20929     20930     20931
     20929     20930     20932     20930     20932     20933     20930     20932     20934
     20930     20932     20982     20931     20930     20932     20932     20982     20983
     20932     20982     20984     20932     20982     20985     20933     20932     20934
     20933     20932     20982     20934     20932     20982     20935     20938     20939
     20935     20938     20940     20935     20938     20941     20936     20935     20937
     20936     20935     20938     20937     20935     20938     20938     20941     20942
     20938     20941     20943     20938     20941     20944     20939     20938     20940
     20939     20938     20941     20940     20938     20941     20941     20944     20945
     20941     20944     20946     20941     20944     20947     20942     20941     20943
     20942     20941     20944     20943     20941     20944     20944     20947     20948
     20944     20947     20949     20944     20947     20950     20945     20944     20946
     20945     20944     20947     20946     20944     20947     20947     20950     20951
     20947     20950     20952     20947     20950     20953     20948     20947     20949
     20948     20947     20950     20949     20947     20950     20950     20953     20954
     20950     20953     20955     20951     20950     20952     20951     20950     20953
     20952     20950     20953     20953     20955     20956     20953     20955     20957
     20954     20953     20955     20955     20957     20958     20955     20957     20959
     20955     20957     20960     20956     20955     20957     20957     20960     20961
     20957     20960     20962     20957     20960     20963     20958     20957     20959
     20958     20957     20960     20959     20957     20960     20960     20963     20964
     20960     20963     20965     20960     20963     20966     20961     20960     20962
     20961     20960     20963     20962     20960     20963     20963     20966     20967
     20963     20966     20968     20963     20966     20969     20964     20963     20965
     20964     20963     20966     20965     20963     20966     20966     20969     20970
     20966     20969     20971     20966     20969     20972     20967     20966     20968
     20967     20966     20969     20968     20966     20969     20969     20972     20973
     20969     20972     20974     20969     20972     20975     20970     20969     20971
     20970     20969     20972     20971     20969     20972     20972     20975     20976
     20972     20975     20977     20972     20975     20978     20973     20972     20974
     20973     20972     20975     20974     20972     20975     20975     20978     20979
     20975     20978     20980     20975     20978     20981     20976     20975     20977
     20976     20975     20978     20977     20975     20978     20979     20978     20980
     20979     20978     20981     20980     20978     20981     20982     20985     20986
     20982     20985     20987     20982     20985     20988     20983     20982     20984
     20983     20982     20985     20984     20982     20985     20985     20988     20989
     20985     20988     20990     20985     20988     20991     20986     20985     20987
     20986     20985     20988     20987     20985     20988     20988     20991     20992
     20988     20991     20993     20988     20991     20994     20989     20988     20990
     20989     20988     20991     20990     20988     20991     20991     20994     20995
     20991     20994     20996     20991     20994     20997     20992     20991     20993
     20992     20991     20994     20993     20991     20994     20994     20997     20998
     20994     20997     20999     20994     20997     21000     20995     20994     20996
     20995     20994     20997     20996     20994     20997     20997     21000     21001
     20997     21000     21002     20997     21000     21003     20998     20997     20999
     20998     20997     21000     20999     20997     21000     21000     21003     21004
     21000     21003     21005     21000     21003     21006     21001     21000     21002
     21001     21000     21003     21002     21000     21003     21003     21006     21007
     21003     21006     21008     21003     21006     21009     21004     21003     21005
     21004     21003     21006     21005     21003     21006     21006     21009     21010
     21006     21009     21011     21006     21009     21012     21007     21006     21008
     21007     21006     21009     21008     21006     21009     21009     21012     21013
     21009     21012     21014     21009     21012     21015     21010     21009     21011
     21010     21009     21012     21011     21009     21012     21012     21015     21016
     21012     21015     21017     21012     21015     21018     21013     21012     21014
     21013     21012     21015     21014     21012     21015     21015     21018     21019
     21015     21018     21020     21015     21018     21021     21016     21015     21017
     21016     21015     21018     21017     21015     21018     21018     21021     21022
     21018     21021     21023     21018     21021     21024     21019     21018     21020
     21019     21018     21021     21020     21018     21021     21021     21024     21025
     21021     21024     21026     21021     21024     21027     21022     21021     21023
     21022     21021     21024     21023     21021     21024     21024     21027     21028
     21024     21027     21029     21024     21027     21030     21025     21024     21026
     21025     21024     21027     21026     21024     21027     21028     21027     21029
     21028     21027     21030     21029     21027     21030     21031     21035     21036
     21031     21035     21037     21031     21035     21038     21032     21031     21033
     21032     21031     21034     21032     21031     21035     21033     21031     21034
     21033     21031     21035     21034     21031     21035     21035     21038     21039
     21035     21038     21040     21035     21038     21044     21036     21035     21037
     21036     21035     21038     21037     21035     21038     21038     21044     21041
     21039     21038     21040     21039     21038     21044     21040     21038     21044
     21041     21045     21046     21042     21041     21043     21042     21041     21044
     21042     21041     21045     21043     21041     21044     21043     21041     21045
     21044     21041     21045     21045     21046     21047     21045     21046     21048
     21045     21046     21049     21046     21049     21050     21046     21049     21051
     21046     21049     21057     21047     21046     21048     21047     21046     21049
     21048     21046     21049     21049     21051     21052     21049     21057     21058
     21049     21057     21059     21049     21057     21060     21050     21049     21051
     21050     21049     21057     21051     21049     21057     21051     21052     21053
     21051     21052     21054     21052     21054     21055     21052     21054     21056
     21052     21054     21066     21053     21052     21054     21054     21066     21067
     21054     21066     21068     21054     21066     21069     21055     21054     21056
     21055     21054     21066     21056     21054     21066     21057     21060     21061
     21058     21057     21059     21058     21057     21060     21059     21057     21060
     21060     21061     21062     21060     21061     21063     21061     21063     21064
     21061     21063     21065     21061     21063     21113     21062     21061     21063
     21063     21113     21114     21063     21113     21115     21063     21113     21116
     21064     21063     21065     21064     21063     21113     21065     21063     21113
     21066     21069     21070     21066     21069     21071     21066     21069     21072
     21067     21066     21068     21067     21066     21069     21068     21066     21069
     21069     21072     21073     21069     21072     21074     21069     21072     21075
     21070     21069     21071     21070     21069     21072     21071     21069     21072
     21072     21075     21076     21072     21075     21077     21072     21075     21078
     21073     21072     21074     21073     21072     21075     21074     21072     21075
     21075     21078     21079     21075     21078     21080     21075     21078     21081
     21076     21075     21077     21076     21075     21078     21077     21075     21078
     21078     21081     21082     21078     21081     21083     21078     21081     21084
     21079     21078     21080     21079     21078     21081     21080     21078     21081
     21081     21084     21085     21081     21084     21086     21082     21081     21083
     21082     21081     21084     21083     21081     21084     21084     21086     21087
     21084     21086     21088     21085     21084     21086     21086     21088     21089
     21086     21088     21090     21086     21088     21091     21087     21086     21088
     21088     21091     21092     21088     21091     21093     21088     21091     21094
     21089     21088     21090     21089     21088     21091     21090     21088     21091
     21091     21094     21095     21091     21094     21096     21091     21094     21097
     21092     21091     21093     21092     21091     21094     21093     21091     21094
     21094     21097     21098     21094     21097     21099     21094     21097     21100
     21095     21094     21096     21095     21094     21097     21096     21094     21097
     21097     21100     21101     21097     21100     21102     21097     21100     21103
     21098     21097     21099     21098     21097     21100     21099     21097     21100
     21100     21103     21104     21100     21103     21105     21100     21103     21106
     21101     21100     21102     21101     21100     21103     21102     21100     21103
     21103     21106     21107     21103     21106     21108     21103     21106     21109
     21104     21103     21105     21104     21103     21106     21105     21103     21106
     21106     21109     21110     21106     21109     21111     21106     21109     21112
     21107     21106     21108     21107     21106     21109     21108     21106     21109
     21110     21109     21111     21110     21109     21112     21111     21109     21112
     21113     21116     21117     21113     21116     21118     21113     21116     21119
     21114     21113     21115     21114     21113     21116     21115     21113     21116
     21116     21119     21120     21116     21119     21121     21116     21119     21122
     21117     21116     21118     21117     21116     21119     21118     21116     21119
     21119     21122     21123     21119     21122     21124     21119     21122     21125
     21120     21119     21121     21120     21119     21122     21121     21119     21122
     21122     21125     21126     21122     21125     21127     21122     21125     21128
     21123     21122     21124     21123     21122     21125     21124     21122     21125
     21125     21128     21129     21125     21128     21130     21125     21128     21131
     21126     21125     21127     21126     21125     21128     21127     21125     21128
     21128     21131     21132     21128     21131     21133     21128     21131     21134
     21129     21128     21130     21129     21128     21131     21130     21128     21131
     21131     21134     21135     21131     21134     21136     21131     21134     21137
     21132     21131     21133     21132     21131     21134     21133     21131     21134
     21134     21137     21138     21134     21137     21139     21134     21137     21140
     21135     21134     21136     21135     21134     21137     21136     21134     21137
     21137     21140     21141     21137     21140     21142     21137     21140     21143
     21138     21137     21139     21138     21137     21140     21139     21137     21140
     21140     21143     21144     21140     21143     21145     21140     21143     21146
     21141     21140     21142     21141     21140     21143     21142     21140     21143
     21143     21146     21147     21143     21146     21148     21143     21146     21149
     21144     21143     21145     21144     21143     21146     21145     21143     21146
     21146     21149     21150     21146     21149     21151     21146     21149     21152
     21147     21146     21148     21147     21146     21149     21148     21146     21149
     21149     21152     21153     21149     21152     21154     21149     21152     21155
     21150     21149     21151     21150     21149     21152     21151     21149     21152
     21152     21155     21156     21152     21155     21157     21152     21155     21158
     21153     21152     21154     21153     21152     21155     21154     21152     21155
     21155     21158     21159     21155     21158     21160     21155     21158     21161
     21156     21155     21157     21156     21155     21158     21157     21155     21158
     21159     21158     21160     21159     21158     21161     21160     21158     21161
     21162     21164     21165     21162     21166     21167     21162     21166     21168
     21162     21166     21169     21162     21208     21205     21162     21208     21209
     21162     21208     21210     21163     21162     21164     21163     21162     21166
     21163     21162     21208     21164     21162     21166     21164     21162     21208
     21166     21162     21208     21166     21169     21170     21166     21169     21200
     21167     21166     21168     21167     21166     21169     21168     21166     21169
     21169     21170     21171     21169     21170     21172     21169     21200     21198
     21169     21200     21201     21169     21200     21205     21170     21169     21200
     21170     21172     21173     21170     21172     21174     21170     21172     21175
     21171     21170     21172     21172     21175     21176     21172     21175     21177
     21172     21175     21198     21173     21172     21174     21173     21172     21175
     21174     21172     21175     21175     21177     21178     21175     21177     21179
     21175     21177     21187     21175     21198     21195     21175     21198     21199
     21175     21198     21200     21176     21175     21177     21176     21175     21198
     21177     21175     21198     21177     21179     21180     21177     21179     21181
     21177     21179     21182     21177     21187     21185     21177     21187     21188
     21177     21187     21192     21178     21177     21179     21178     21177     21187
     21179     21177     21187     21179     21182     21183     21179     21182     21184
     21179     21182     21185     21180     21179     21181     21180     21179     21182
     21181     21179     21182     21182     21185     21186     21182     21185     21187
     21182     21185     21211     21183     21182     21184     21183     21182     21185
     21184     21182     21185     21185     21187     21188     21185     21187     21192
     21185     21211     21212     21185     21211     21213     21185     21211     21217
     21186     21185     21187     21186     21185     21211     21187     21185     21211
     21187     21188     21189     21187     21188     21190     21187     21188     21191
     21187     21192     21193     21187     21192     21194     21187     21192     21195
     21188     21187     21192     21189     21188     21190     21189     21188     21191
     21190     21188     21191     21192     21195     21196     21192     21195     21197
     21192     21195     21198     21193     21192     21194     21193     21192     21195
     21194     21192     21195     21195     21198     21199     21195     21198     21200
     21196     21195     21197     21196     21195     21198     21197     21195     21198
     21198     21200     21201     21198     21200     21205     21199     21198     21200
     21200     21201     21202     21200     21201     21203     21200     21201     21204
     21200     21205     21206     21200     21205     21207     21200     21205     21208
     21201     21200     21205     21202     21201     21203     21202     21201     21204
     21203     21201     21204     21205     21208     21209     21205     21208     21210
     21206     21205     21207     21206     21205     21208     21207     21205     21208
     21209     21208     21210     21211     21213     21214     21211     21213     21215
     21211     21213     21216     21211     21217     21218     21211     21217     21219
     21211     21217     21220     21212     21211     21213     21212     21211     21217
     21213     21211     21217     21214     21213     21215     21214     21213     21216
     21215     21213     21216     21217     21220     21221     21217     21220     21222
     21217     21220     21223     21218     21217     21219     21218     21217     21220
     21219     21217     21220     21220     21223     21224     21220     21223     21225
     21220     21223     21226     21221     21220     21222     21221     21220     21223
     21222     21220     21223     21223     21226     21227     21223     21226     21228
     21223     21226     21232     21224     21223     21225     21224     21223     21226
     21225     21223     21226     21226     21228     21229     21226     21228     21230
     21226     21228     21231     21226     21232     21233     21226     21232     21234
     21226     21232     21235     21227     21226     21228     21227     21226     21232
     21228     21226     21232     21229     21228     21230     21229     21228     21231
     21230     21228     21231     21233     21232     21234     21233     21232     21235
     21234     21232     21235     21236     21237     21238     21236     21237     21239
     21236     21237     21240     21236     21241     21242     21236     21241     21243
     21236     21241     21244     21236     21245     21246     21236     21245     21247
     21236     21245     21248     21236     21249     21250     21236     21249     21251
     21236     21249     21252     21237     21236     21241     21237     21236     21245
     21237     21236     21249     21238     21237     21239     21238     21237     21240
     21239     21237     21240     21241     21236     21245     21241     21236     21249
     21242     21241     21243     21242     21241     21244     21243     21241     21244
     21245     21236     21249     21246     21245     21247     21246     21245     21248
     21247     21245     21248     21249     21252     21253     21249     21252     21254
     21249     21252     21259     21250     21249     21251     21250     21249     21252
     21251     21249     21252     21252     21259     21255     21253     21252     21254
     21253     21252     21259     21254     21252     21259     21255     21258     21260
     21256     21255     21257     21256     21255     21258     21256     21255     21259
     21257     21255     21258     21257     21255     21259     21258     21255     21259
     21258     21260     21261     21258     21260     21262     21258     21260     21265
     21260     21265     21263     21260     21265     21266     21260     21265     21267
     21261     21260     21262     21261     21260     21265     21262     21260     21265
     21263     21265     21266     21263     21265     21267     21263     21315     21316
     21263     21315     21317     21264     21263     21265     21264     21263     21315
     21265     21263     21315     21265     21267     21268     21265     21267     21269
     21265     21267     21271     21266     21265     21267     21267     21269     21270
     21267     21271     21272     21267     21271     21273     21268     21267     21269
     21268     21267     21271     21269     21267     21271     21271     21273     21274
     21271     21273     21275     21272     21271     21273     21273     21275     21276
     21273     21275     21277     21273     21275     21278     21274     21273     21275
     21275     21278     21279     21275     21278     21280     21275     21278     21281
     21276     21275     21277     21276     21275     21278     21277     21275     21278
     21278     21281     21282     21278     21281     21283     21278     21281     21284
     21279     21278     21280     21279     21278     21281     21280     21278     21281
     21281     21284     21285     21281     21284     21286     21281     21284     21287
     21282     21281     21283     21282     21281     21284     21283     21281     21284
     21284     21287     21288     21284     21287     21289     21284     21287     21290
     21285     21284     21286     21285     21284     21287     21286     21284     21287
     21287     21290     21291     21287     21290     21292     21287     21290     21293
     21288     21287     21289     21288     21287     21290     21289     21287     21290
     21290     21293     21294     21290     21293     21295     21290     21293     21296
     21291     21290     21292     21291     21290     21293     21292     21290     21293
     21293     21296     21297     21293     21296     21298     21293     21296     21299
     21294     21293     21295     21294     21293     21296     21295     21293     21296
     21296     21299     21300     21296     21299     21301     21296     21299     21302
     21297     21296     21298     21297     21296     21299     21298     21296     21299
     21299     21302     21303     21299     21302     21304     21299     21302     21305
     21300     21299     21301     21300     21299     21302     21301     21299     21302
     21302     21305     21306     21302     21305     21307     21302     21305     21308
     21303     21302     21304     21303     21302     21305     21304     21302     21305
     21305     21308     21309     21305     21308     21310     21305     21308     21311
     21306     21305     21307     21306     21305     21308     21307     21305     21308
     21308     21311     21312     21308     21311     21313     21308     21311     21314
     21309     21308     21310     21309     21308     21311     21310     21308     21311
     21312     21311     21313     21312     21311     21314     21313     21311     21314
     21315     21317     21318     21315     21317     21319     21315     21317     21320
     21316     21315     21317     21317     21320     21321     21317     21320     21322
     21317     21320     21323     21318     21317     21319     21318     21317     21320
     21319     21317     21320     21320     21323     21324     21320     21323     21325
     21320     21323     21326     21321     21320     21322     21321     21320     21323
     21322     21320     21323     21323     21326     21327     21323     21326     21328
     21323     21326     21329     21324     21323     21325     21324     21323     21326
     21325     21323     21326     21326     21329     21330     21326     21329     21331
     21326     21329     21332     21327     21326     21328     21327     21326     21329
     21328     21326     21329     21329     21332     21333     21329     21332     21334
     21329     21332     21335     21330     21329     21331     21330     21329     21332
     21331     21329     21332     21332     21335     21336     21332     21335     21337
     21332     21335     21338     21333     21332     21334     21333     21332     21335
     21334     21332     21335     21335     21338     21339     21335     21338     21340
     21336     21335     21337     21336     21335     21338     21337     21335     21338
     21338     21340     21341     21338     21340     21342     21339     21338     21340
     21340     21342     21343     21340     21342     21344     21340     21342     21345
     21341     21340     21342     21342     21345     21346     21342     21345     21347
     21342     21345     21348     21343     21342     21344     21343     21342     21345
     21344     21342     21345     21345     21348     21349     21345     21348     21350
     21345     21348     21351     21346     21345     21347     21346     21345     21348
     21347     21345     21348     21348     21351     21352     21348     21351     21353
     21348     21351     21354     21349     21348     21350     21349     21348     21351
     21350     21348     21351     21351     21354     21355     21351     21354     21356
     21351     21354     21357     21352     21351     21353     21352     21351     21354
     21353     21351     21354     21354     21357     21358     21354     21357     21359
     21354     21357     21360     21355     21354     21356     21355     21354     21357
     21356     21354     21357     21357     21360     21361     21357     21360     21362
     21357     21360     21363     21358     21357     21359     21358     21357     21360
     21359     21357     21360     21360     21363     21364     21360     21363     21365
     21360     21363     21366     21361     21360     21362     21361     21360     21363
     21362     21360     21363     21364     21363     21365     21364     21363     21366
     21365     21363     21366     21367     21371     21372     21367     21371     21373
     21367     21371     21374     21368     21367     21369     21368     21367     21370
     21368     21367     21371     21369     21367     21370     21369     21367     21371
     21370     21367     21371     21371     21374     21375     21371     21374     21376
     21371     21374     21380     21372     21371     21373     21372     21371     21374
     21373     21371     21374     21374     21380     21377     21375     21374     21376
     21375     21374     21380     21376     21374     21380     21377     21381     21382
     21378     21377     21379     21378     21377     21380     21378     21377     21381
     21379     21377     21380     21379     21377     21381     21380     21377     21381
     21381     21382     21383     21381     21382     21384     21381     21382     21385
     21382     21385     21386     21382     21385     21387     21382     21385     21393
     21383     21382     21384     21383     21382     21385     21384     21382     21385
     21385     21387     21388     21385     21393     21394     21385     21393     21395
     21385     21393     21396     21386     21385     21387     21386     21385     21393
     21387     21385     21393     21387     21388     21389     21387     21388     21390
     21388     21390     21391     21388     21390     21392     21388     21390     21402
     21389     21388     21390     21390     21402     21403     21390     21402     21404
     21390     21402     21405     21391     21390     21392     21391     21390     21402
     21392     21390     21402     21393     21396     21397     21394     21393     21395
     21394     21393     21396     21395     21393     21396     21396     21397     21398
     21396     21397     21399     21397     21399     21400     21397     21399     21401
     21397     21399     21449     21398     21397     21399     21399     21449     21450
     21399     21449     21451     21399     21449     21452     21400     21399     21401
     21400     21399     21449     21401     21399     21449     21402     21405     21406
     21402     21405     21407     21402     21405     21408     21403     21402     21404
     21403     21402     21405     21404     21402     21405     21405     21408     21409
     21405     21408     21410     21406     21405     21407     21406     21405     21408
     21407     21405     21408     21408     21410     21411     21408     21410     21412
     21409     21408     21410     21410     21412     21413     21410     21412     21414
     21410     21412     21415     21411     21410     21412     21412     21415     21416
     21412     21415     21417     21413     21412     21414     21413     21412     21415
     21414     21412     21415     21415     21417     21418     21415     21417     21419
     21416     21415     21417     21417     21419     21420     21417     21419     21421
     21417     21419     21422     21418     21417     21419     21419     21422     21423
     21419     21422     21424     21420     21419     21421     21420     21419     21422
     21421     21419     21422     21422     21424     21425     21422     21424     21426
     21423     21422     21424     21424     21426     21427     21424     21426     21428
     21424     21426     21429     21425     21424     21426     21426     21429     21430
     21426     21429     21431     21427     21426     21428     21427     21426     21429
     21428     21426     21429     21429     21431     21432     21429     21431     21433
     21430     21429     21431     21431     21433     21434     21431     21433     21435
     21431     21433     21436     21432     21431     21433     21433     21436     21437
     21433     21436     21438     21433     21436     21439     21434     21433     21435
     21434     21433     21436     21435     21433     21436     21436     21439     21440
     21436     21439     21441     21436     21439     21442     21437     21436     21438
     21437     21436     21439     21438     21436     21439     21439     21442     21443
     21439     21442     21444     21439     21442     21445     21440     21439     21441
     21440     21439     21442     21441     21439     21442     21442     21445     21446
     21442     21445     21447     21442     21445     21448     21443     21442     21444
     21443     21442     21445     21444     21442     21445     21446     21445     21447
     21446     21445     21448     21447     21445     21448     21449     21452     21453
     21449     21452     21454     21449     21452     21455     21450     21449     21451
     21450     21449     21452     21451     21449     21452     21452     21455     21456
     21452     21455     21457     21452     21455     21458     21453     21452     21454
     21453     21452     21455     21454     21452     21455     21455     21458     21459
     21455     21458     21460     21455     21458     21461     21456     21455     21457
     21456     21455     21458     21457     21455     21458     21458     21461     21462
     21458     21461     21463     21458     21461     21464     21459     21458     21460
     21459     21458     21461     21460     21458     21461     21461     21464     21465
     21461     21464     21466     21461     21464     21467     21462     21461     21463
     21462     21461     21464     21463     21461     21464     21464     21467     21468
     21464     21467     21469     21464     21467     21470     21465     21464     21466
     21465     21464     21467     21466     21464     21467     21467     21470     21471
     21467     21470     21472     21467     21470     21473     21468     21467     21469
     21468     21467     21470     21469     21467     21470     21470     21473     21474
     21470     21473     21475     21470     21473     21476     21471     21470     21472
     21471     21470     21473     21472     21470     21473     21473     21476     21477
     21473     21476     21478     21473     21476     21479     21474     21473     21475
     21474     21473     21476     21475     21473     21476     21476     21479     21480
     21476     21479     21481     21476     21479     21482     21477     21476     21478
     21477     21476     21479     21478     21476     21479     21479     21482     21483
     21479     21482     21484     21479     21482     21485     21480     21479     21481
     21480     21479     21482     21481     21479     21482     21482     21485     21486
     21482     21485     21487     21482     21485     21488     21483     21482     21484
     21483     21482     21485     21484     21482     21485     21485     21488     21489
     21485     21488     21490     21485     21488     21491     21486     21485     21487
     21486     21485     21488     21487     21485     21488     21488     21491     21492
     21488     21491     21493     21488     21491     21494     21489     21488     21490
     21489     21488     21491     21490     21488     21491     21491     21494     21495
     21491     21494     21496     21491     21494     21497     21492     21491     21493
     21492     21491     21494     21493     21491     21494     21495     21494     21496
     21495     21494     21497     21496     21494     21497     21498     21499     21500
     21498     21499     21501     21498     21499     21502     21498     21503     21504
     21498     21503     21505     21498     21503     21506     21498     21507     21508
     21498     21507     21509     21498     21507     21510     21498     21511     21512
     21498     21511     21513     21498     21511     21514     21499     21498     21503
     21499     21498     21507     21499     21498     21511     21500     21499     21501
     21500     21499     21502     21501     21499     21502     21503     21498     21507
     21503     21498     21511     21504     21503     21505     21504     21503     21506
     21505     21503     21506     21507     21498     21511     21508     21507     21509
     21508     21507     21510     21509     21507     21510     21511     21514     21515
     21511     21514     21516     21511     21514     21521     21512     21511     21513
     21512     21511     21514     21513     21511     21514     21514     21521     21517
     21515     21514     21516     21515     21514     21521     21516     21514     21521
     21517     21520     21522     21518     21517     21519     21518     21517     21520
     21518     21517     21521     21519     21517     21520     21519     21517     21521
     21520     21517     21521     21520     21522     21523     21520     21522     21524
     21520     21522     21527     21522     21527     21525     21522     21527     21528
     21522     21527     21529     21523     21522     21524     21523     21522     21527
     21524     21522     21527     21525     21527     21528     21525     21527     21529
     21525     21577     21578     21525     21577     21579     21526     21525     21527
     21526     21525     21577     21527     21525     21577     21527     21529     21530
     21527     21529     21531     21527     21529     21533     21528     21527     21529
     21529     21531     21532     21529     21533     21534     21529     21533     21535
     21530     21529     21531     21530     21529     21533     21531     21529     21533
     21533     21535     21536     21533     21535     21537     21534     21533     21535
     21535     21537     21538     21535     21537     21539     21535     21537     21540
     21536     21535     21537     21537     21540     21541     21537     21540     21542
     21537     21540     21543     21538     21537     21539     21538     21537     21540
     21539     21537     21540     21540     21543     21544     21540     21543     21545
     21540     21543     21546     21541     21540     21542     21541     21540     21543
     21542     21540     21543     21543     21546     21547     21543     21546     21548
     21543     21546     21549     21544     21543     21545     21544     21543     21546
     21545     21543     21546     21546     21549     21550     21546     21549     21551
     21546     21549     21552     21547     21546     21548     21547     21546     21549
     21548     21546     21549     21549     21552     21553     21549     21552     21554
     21549     21552     21555     21550     21549     21551     21550     21549     21552
     21551     21549     21552     21552     21555     21556     21552     21555     21557
     21552     21555     21558     21553     21552     21554     21553     21552     21555
     21554     21552     21555     21555     21558     21559     21555     21558     21560
     21555     21558     21561     21556     21555     21557     21556     21555     21558
     21557     21555     21558     21558     21561     21562     21558     21561     21563
     21558     21561     21564     21559     21558     21560     21559     21558     21561
     21560     21558     21561     21561     21564     21565     21561     21564     21566
     21561     21564     21567     21562     21561     21563     21562     21561     21564
     21563     21561     21564     21564     21567     21568     21564     21567     21569
     21564     21567     21570     21565     21564     21566     21565     21564     21567
     21566     21564     21567     21567     21570     21571     21567     21570     21572
     21567     21570     21573     21568     21567     21569     21568     21567     21570
     21569     21567     21570     21570     21573     21574     21570     21573     21575
     21570     21573     21576     21571     21570     21572     21571     21570     21573
     21572     21570     21573     21574     21573     21575     21574     21573     21576
     21575     21573     21576     21577     21579     21580     21577     21579     21581
     21577     21579     21582     21578     21577     21579     21579     21582     21583
     21579     21582     21584     21579     21582     21585     21580     21579     21581
     21580     21579     21582     21581     21579     21582     21582     21585     21586
     21582     21585     21587     21582     21585     21588     21583     21582     21584
     21583     21582     21585     21584     21582     21585     21585     21588     21589
     21585     21588     21590     21585     21588     21591     21586     21585     21587
     21586     21585     21588     21587     21585     21588     21588     21591     21592
     21588     21591     21593     21588     21591     21594     21589     21588     21590
     21589     21588     21591     21590     21588     21591     21591     21594     21595
     21591     21594     21596     21591     21594     21597     21592     21591     21593
     21592     21591     21594     21593     21591     21594     21594     21597     21598
     21594     21597     21599     21594     21597     21600     21595     21594     21596
     21595     21594     21597     21596     21594     21597     21597     21600     21601
     21597     21600     21602     21598     21597     21599     21598     21597     21600
     21599     21597     21600     21600     21602     21603     21600     21602     21604
     21601     21600     21602     21602     21604     21605     21602     21604     21606
     21602     21604     21607     21603     21602     21604     21604     21607     21608
     21604     21607     21609     21604     21607     21610     21605     21604     21606
     21605     21604     21607     21606     21604     21607     21607     21610     21611
     21607     21610     21612     21607     21610     21613     21608     21607     21609
     21608     21607     21610     21609     21607     21610     21610     21613     21614
     21610     21613     21615     21610     21613     21616     21611     21610     21612
     21611     21610     21613     21612     21610     21613     21613     21616     21617
     21613     21616     21618     21613     21616     21619     21614     21613     21615
     21614     21613     21616     21615     21613     21616     21616     21619     21620
     21616     21619     21621     21616     21619     21622     21617     21616     21618
     21617     21616     21619     21618     21616     21619     21619     21622     21623
     21619     21622     21624     21619     21622     21625     21620     21619     21621
     21620     21619     21622     21621     21619     21622     21622     21625     21626
     21622     21625     21627     21622     21625     21628     21623     21622     21624
     21623     21622     21625     21624     21622     21625     21626     21625     21627
     21626     21625     21628     21627     21625     21628     21629     21631     21632
     21629     21633     21634     21629     21633     21635     21629     21633     21636
     21629     21675     21672     21629     21675     21676     21629     21675     21677
     21630     21629     21631     21630     21629     21633     21630     21629     21675
     21631     21629     21633     21631     21629     21675     21633     21629     21675
     21633     21636     21637     21633     21636     21667     21634     21633     21635
     21634     21633     21636     21635     21633     21636     21636     21637     21638
     21636     21637     21639     21636     21667     21665     21636     21667     21668
     21636     21667     21672     21637     21636     21667     21637     21639     21640
     21637     21639     21641     21637     21639     21642     21638     21637     21639
     21639     21642     21643     21639     21642     21644     21639     21642     21665
     21640     21639     21641     21640     21639     21642     21641     21639     21642
     21642     21644     21645     21642     21644     21646     21642     21644     21654
     21642     21665     21662     21642     21665     21666     21642     21665     21667
     21643     21642     21644     21643     21642     21665     21644     21642     21665
     21644     21646     21647     21644     21646     21648     21644     21646     21649
     21644     21654     21652     21644     21654     21655     21644     21654     21659
     21645     21644     21646     21645     21644     21654     21646     21644     21654
     21646     21649     21650     21646     21649     21651     21646     21649     21652
     21647     21646     21648     21647     21646     21649     21648     21646     21649
     21649     21652     21653     21649     21652     21654     21649     21652     21678
     21650     21649     21651     21650     21649     21652     21651     21649     21652
     21652     21654     21655     21652     21654     21659     21652     21678     21679
     21652     21678     21680     21652     21678     21684     21653     21652     21654
     21653     21652     21678     21654     21652     21678     21654     21655     21656
     21654     21655     21657     21654     21655     21658     21654     21659     21660
     21654     21659     21661     21654     21659     21662     21655     21654     21659
     21656     21655     21657     21656     21655     21658     21657     21655     21658
     21659     21662     21663     21659     21662     21664     21659     21662     21665
     21660     21659     21661     21660     21659     21662     21661     21659     21662
     21662     21665     21666     21662     21665     21667     21663     21662     21664
     21663     21662     21665     21664     21662     21665     21665     21667     21668
     21665     21667     21672     21666     21665     21667     21667     21668     21669
     21667     21668     21670     21667     21668     21671     21667     21672     21673
     21667     21672     21674     21667     21672     21675     21668     21667     21672
     21669     21668     21670     21669     21668     21671     21670     21668     21671
     21672     21675     21676     21672     21675     21677     21673     21672     21674
     21673     21672     21675     21674     21672     21675     21676     21675     21677
     21678     21680     21681     21678     21680     21682     21678     21680     21683
     21678     21684     21685     21678     21684     21686     21678     21684     21687
     21679     21678     21680     21679     21678     21684     21680     21678     21684
     21681     21680     21682     21681     21680     21683     21682     21680     21683
     21684     21687     21688     21684     21687     21689     21684     21687     21690
     21685     21684     21686     21685     21684     21687     21686     21684     21687
     21687     21690     21691     21687     21690     21692     21687     21690     21693
     21688     21687     21689     21688     21687     21690     21689     21687     21690
     21690     21693     21694     21690     21693     21695     21690     21693     21699
     21691     21690     21692     21691     21690     21693     21692     21690     21693
     21693     21695     21696     21693     21695     21697     21693     21695     21698
     21693     21699     21700     21693     21699     21701     21693     21699     21702
     21694     21693     21695     21694     21693     21699     21695     21693     21699
     21696     21695     21697     21696     21695     21698     21697     21695     21698
     21700     21699     21701     21700     21699     21702     21701     21699     21702
     21703     21704     21705     21703     21704     21706     21703     21704     21707
     21703     21708     21709     21703     21708     21710     21703     21708     21711
     21703     21712     21713     21703     21712     21714     21703     21712     21715
     21703     21716     21717     21703     21716     21718     21703     21716     21719
     21704     21703     21708     21704     21703     21712     21704     21703     21716
     21705     21704     21706     21705     21704     21707     21706     21704     21707
     21708     21703     21712     21708     21703     21716     21709     21708     21710
     21709     21708     21711     21710     21708     21711     21712     21703     21716
     21713     21712     21714     21713     21712     21715     21714     21712     21715
     21716     21719     21720     21716     21719     21721     21716     21719     21726
     21717     21716     21718     21717     21716     21719     21718     21716     21719
     21719     21726     21722     21720     21719     21721     21720     21719     21726
     21721     21719     21726     21722     21725     21727     21723     21722     21724
     21723     21722     21725     21723     21722     21726     21724     21722     21725
     21724     21722     21726     21725     21722     21726     21725     21727     21728
     21725     21727     21729     21725     21727     21732     21727     21732     21730
     21727     21732     21733     21727     21732     21734     21728     21727     21729
     21728     21727     21732     21729     21727     21732     21730     21732     21733
     21730     21732     21734     21730     21782     21783     21730     21782     21784
     21731     21730     21732     21731     21730     21782     21732     21730     21782
     21732     21734     21735     21732     21734     21736     21732     21734     21738
     21733     21732     21734     21734     21736     21737     21734     21738     21739
     21734     21738     21740     21735     21734     21736     21735     21734     21738
     21736     21734     21738     21738     21740     21741     21738     21740     21742
     21739     21738     21740     21740     21742     21743     21740     21742     21744
     21740     21742     21745     21741     21740     21742     21742     21745     21746
     21742     21745     21747     21742     21745     21748     21743     21742     21744
     21743     21742     21745     21744     21742     21745     21745     21748     21749
     21745     21748     21750     21745     21748     21751     21746     21745     21747
     21746     21745     21748     21747     21745     21748     21748     21751     21752
     21748     21751     21753     21748     21751     21754     21749     21748     21750
     21749     21748     21751     21750     21748     21751     21751     21754     21755
     21751     21754     21756     21751     21754     21757     21752     21751     21753
     21752     21751     21754     21753     21751     21754     21754     21757     21758
     21754     21757     21759     21754     21757     21760     21755     21754     21756
     21755     21754     21757     21756     21754     21757     21757     21760     21761
     21757     21760     21762     21757     21760     21763     21758     21757     21759
     21758     21757     21760     21759     21757     21760     21760     21763     21764
     21760     21763     21765     21760     21763     21766     21761     21760     21762
     21761     21760     21763     21762     21760     21763     21763     21766     21767
     21763     21766     21768     21763     21766     21769     21764     21763     21765
     21764     21763     21766     21765     21763     21766     21766     21769     21770
     21766     21769     21771     21766     21769     21772     21767     21766     21768
     21767     21766     21769     21768     21766     21769     21769     21772     21773
     21769     21772     21774     21769     21772     21775     21770     21769     21771
     21770     21769     21772     21771     21769     21772     21772     21775     21776
     21772     21775     21777     21772     21775     21778     21773     21772     21774
     21773     21772     21775     21774     21772     21775     21775     21778     21779
     21775     21778     21780     21775     21778     21781     21776     21775     21777
     21776     21775     21778     21777     21775     21778     21779     21778     21780
     21779     21778     21781     21780     21778     21781     21782     21784     21785
     21782     21784     21786     21782     21784     21787     21783     21782     21784
     21784     21787     21788     21784     21787     21789     21784     21787     21790
     21785     21784     21786     21785     21784     21787     21786     21784     21787
     21787     21790     21791     21787     21790     21792     21787     21790     21793
     21788     21787     21789     21788     21787     21790     21789     21787     21790
     21790     21793     21794     21790     21793     21795     21790     21793     21796
     21791     21790     21792     21791     21790     21793     21792     21790     21793
     21793     21796     21797     21793     21796     21798     21793     21796     21799
     21794     21793     21795     21794     21793     21796     21795     21793     21796
     21796     21799     21800     21796     21799     21801     21796     21799     21802
     21797     21796     21798     21797     21796     21799     21798     21796     21799
     21799     21802     21803     21799     21802     21804     21799     21802     21805
     21800     21799     21801     21800     21799     21802     21801     21799     21802
     21802     21805     21806     21802     21805     21807     21803     21802     21804
     21803     21802     21805     21804     21802     21805     21805     21807     21808
     21805     21807     21809     21806     21805     21807     21807     21809     21810
     21807     21809     21811     21807     21809     21812     21808     21807     21809
     21809     21812     21813     21809     21812     21814     21809     21812     21815
     21810     21809     21811     21810     21809     21812     21811     21809     21812
     21812     21815     21816     21812     21815     21817     21812     21815     21818
     21813     21812     21814     21813     21812     21815     21814     21812     21815
     21815     21818     21819     21815     21818     21820     21815     21818     21821
     21816     21815     21817     21816     21815     21818     21817     21815     21818
     21818     21821     21822     21818     21821     21823     21818     21821     21824
     21819     21818     21820     21819     21818     21821     21820     21818     21821
     21821     21824     21825     21821     21824     21826     21821     21824     21827
     21822     21821     21823     21822     21821     21824     21823     21821     21824
     21824     21827     21828     21824     21827     21829     21824     21827     21830
     21825     21824     21826     21825     21824     21827     21826     21824     21827
     21827     21830     21831     21827     21830     21832     21827     21830     21833
     21828     21827     21829     21828     21827     21830     21829     21827     21830
     21831     21830     21832     21831     21830     21833     21832     21830     21833
     21834     21835     21836     21834     21835     21837     21834     21835     21838
     21834     21839     21840     21834     21839     21841     21834     21839     21842
     21834     21843     21844     21834     21843     21845     21834     21843     21846
     21834     21847     21848     21834     21847     21849     21834     21847     21850
     21835     21834     21839     21835     21834     21843     21835     21834     21847
     21836     21835     21837     21836     21835     21838     21837     21835     21838
     21839     21834     21843     21839     21834     21847     21840     21839     21841
     21840     21839     21842     21841     21839     21842     21843     21834     21847
     21844     21843     21845     21844     21843     21846     21845     21843     21846
     21847     21850     21851     21847     21850     21852     21847     21850     21857
     21848     21847     21849     21848     21847     21850     21849     21847     21850
     21850     21857     21853     21851     21850     21852     21851     21850     21857
     21852     21850     21857     21853     21856     21858     21854     21853     21855
     21854     21853     21856     21854     21853     21857     21855     21853     21856
     21855     21853     21857     21856     21853     21857     21856     21858     21859
     21856     21858     21860     21856     21858     21863     21858     21863     21861
     21858     21863     21864     21858     21863     21865     21859     21858     21860
     21859     21858     21863     21860     21858     21863     21861     21863     21864
     21861     21863     21865     21861     21913     21914     21861     21913     21915
     21862     21861     21863     21862     21861     21913     21863     21861     21913
     21863     21865     21866     21863     21865     21867     21863     21865     21869
     21864     21863     21865     21865     21867     21868     21865     21869     21870
     21865     21869     21871     21866     21865     21867     21866     21865     21869
     21867     21865     21869     21869     21871     21872     21869     21871     21873
     21870     21869     21871     21871     21873     21874     21871     21873     21875
     21871     21873     21876     21872     21871     21873     21873     21876     21877
     21873     21876     21878     21873     21876     21879     21874     21873     21875
     21874     21873     21876     21875     21873     21876     21876     21879     21880
     21876     21879     21881     21876     21879     21882     21877     21876     21878
     21877     21876     21879     21878     21876     21879     21879     21882     21883
     21879     21882     21884     21879     21882     21885     21880     21879     21881
     21880     21879     21882     21881     21879     21882     21882     21885     21886
     21882     21885     21887     21882     21885     21888     21883     21882     21884
     21883     21882     21885     21884     21882     21885     21885     21888     21889
     21885     21888     21890     21885     21888     21891     21886     21885     21887
     21886     21885     21888     21887     21885     21888     21888     21891     21892
     21888     21891     21893     21888     21891     21894     21889     21888     21890
     21889     21888     21891     21890     21888     21891     21891     21894     21895
     21891     21894     21896     21891     21894     21897     21892     21891     21893
     21892     21891     21894     21893     21891     21894     21894     21897     21898
     21894     21897     21899     21894     21897     21900     21895     21894     21896
     21895     21894     21897     21896     21894     21897     21897     21900     21901
     21897     21900     21902     21897     21900     21903     21898     21897     21899
     21898     21897     21900     21899     21897     21900     21900     21903     21904
     21900     21903     21905     21900     21903     21906     21901     21900     21902
     21901     21900     21903     21902     21900     21903     21903     21906     21907
     21903     21906     21908     21903     21906     21909     21904     21903     21905
     21904     21903     21906     21905     21903     21906     21906     21909     21910
     21906     21909     21911     21906     21909     21912     21907     21906     21908
     21907     21906     21909     21908     21906     21909     21910     21909     21911
     21910     21909     21912     21911     21909     21912     21913     21915     21916
     21913     21915     21917     21913     21915     21918     21914     21913     21915
     21915     21918     21919     21915     21918     21920     21915     21918     21921
     21916     21915     21917     21916     21915     21918     21917     21915     21918
     21918     21921     21922     21918     21921     21923     21918     21921     21924
     21919     21918     21920     21919     21918     21921     21920     21918     21921
     21921     21924     21925     21921     21924     21926     21921     21924     21927
     21922     21921     21923     21922     21921     21924     21923     21921     21924
     21924     21927     21928     21924     21927     21929     21924     21927     21930
     21925     21924     21926     21925     21924     21927     21926     21924     21927
     21927     21930     21931     21927     21930     21932     21927     21930     21933
     21928     21927     21929     21928     21927     21930     21929     21927     21930
     21930     21933     21934     21930     21933     21935     21930     21933     21936
     21931     21930     21932     21931     21930     21933     21932     21930     21933
     21933     21936     21937     21933     21936     21938     21934     21933     21935
     21934     21933     21936     21935     21933     21936     21936     21938     21939
     21936     21938     21940     21937     21936     21938     21938     21940     21941
     21938     21940     21942     21938     21940     21943     21939     21938     21940
     21940     21943     21944     21940     21943     21945     21940     21943     21946
     21941     21940     21942     21941     21940     21943     21942     21940     21943
     21943     21946     21947     21943     21946     21948     21943     21946     21949
     21944     21943     21945     21944     21943     21946     21945     21943     21946
     21946     21949     21950     21946     21949     21951     21946     21949     21952
     21947     21946     21948     21947     21946     21949     21948     21946     21949
     21949     21952     21953     21949     21952     21954     21949     21952     21955
     21950     21949     21951     21950     21949     21952     21951     21949     21952
     21952     21955     21956     21952     21955     21957     21952     21955     21958
     21953     21952     21954     21953     21952     21955     21954     21952     21955
     21955     21958     21959     21955     21958     21960     21955     21958     21961
     21956     21955     21957     21956     21955     21958     21957     21955     21958
     21958     21961     21962     21958     21961     21963     21958     21961     21964
     21959     21958     21960     21959     21958     21961     21960     21958     21961
     21962     21961     21963     21962     21961     21964     21963     21961     21964
     21965     21967     21968     21965     21969     21970     21965     21969     21971
     21965     21969     21972     21965     22011     22008     21965     22011     22012
     21965     22011     22013     21966     21965     21967     21966     21965     21969
     21966     21965     22011     21967     21965     21969     21967     21965     22011
     21969     21965     22011     21969     21972     21973     21969     21972     22003
     21970     21969     21971     21970     21969     21972     21971     21969     21972
     21972     21973     21974     21972     21973     21975     21972     22003     22001
     21972     22003     22004     21972     22003     22008     21973     21972     22003
     21973     21975     21976     21973     21975     21977     21973     21975     21978
     21974     21973     21975     21975     21978     21979     21975     21978     21980
     21975     21978     22001     21976     21975     21977     21976     21975     21978
     21977     21975     21978     21978     21980     21981     21978     21980     21982
     21978     21980     21990     21978     22001     21998     21978     22001     22002
     21978     22001     22003     21979     21978     21980     21979     21978     22001
     21980     21978     22001     21980     21982     21983     21980     21982     21984
     21980     21982     21985     21980     21990     21988     21980     21990     21991
     21980     21990     21995     21981     21980     21982     21981     21980     21990
     21982     21980     21990     21982     21985     21986     21982     21985     21987
     21982     21985     21988     21983     21982     21984     21983     21982     21985
     21984     21982     21985     21985     21988     21989     21985     21988     21990
     21985     21988     22014     21986     21985     21987     21986     21985     21988
     21987     21985     21988     21988     21990     21991     21988     21990     21995
     21988     22014     22015     21988     22014     22016     21988     22014     22020
     21989     21988     21990     21989     21988     22014     21990     21988     22014
     21990     21991     21992     21990     21991     21993     21990     21991     21994
     21990     21995     21996     21990     21995     21997     21990     21995     21998
     21991     21990     21995     21992     21991     21993     21992     21991     21994
     21993     21991     21994     21995     21998     21999     21995     21998     22000
     21995     21998     22001     21996     21995     21997     21996     21995     21998
     21997     21995     21998     21998     22001     22002     21998     22001     22003
     21999     21998     22000     21999     21998     22001     22000     21998     22001
     22001     22003     22004     22001     22003     22008     22002     22001     22003
     22003     22004     22005     22003     22004     22006     22003     22004     22007
     22003     22008     22009     22003     22008     22010     22003     22008     22011
     22004     22003     22008     22005     22004     22006     22005     22004     22007
     22006     22004     22007     22008     22011     22012     22008     22011     22013
     22009     22008     22010     22009     22008     22011     22010     22008     22011
     22012     22011     22013     22014     22016     22017     22014     22016     22018
     22014     22016     22019     22014     22020     22021     22014     22020     22022
     22014     22020     22023     22015     22014     22016     22015     22014     22020
     22016     22014     22020     22017     22016     22018     22017     22016     22019
     22018     22016     22019     22020     22023     22024     22020     22023     22025
     22020     22023     22026     22021     22020     22022     22021     22020     22023
     22022     22020     22023     22023     22026     22027     22023     22026     22028
     22023     22026     22029     22024     22023     22025     22024     22023     22026
     22025     22023     22026     22026     22029     22030     22026     22029     22031
     22026     22029     22035     22027     22026     22028     22027     22026     22029
     22028     22026     22029     22029     22031     22032     22029     22031     22033
     22029     22031     22034     22029     22035     22036     22029     22035     22037
     22029     22035     22038     22030     22029     22031     22030     22029     22035
     22031     22029     22035     22032     22031     22033     22032     22031     22034
     22033     22031     22034     22036     22035     22037     22036     22035     22038
     22037     22035     22038     22039     22040     22041     22039     22040     22042
     22039     22040     22055     22039     22043     22044     22039     22043     22045
     22039     22043     22046     22039     22047     22048     22039     22047     22049
     22039     22047     22050     22039     22051     22052     22039     22051     22053
     22039     22051     22054     22040     22039     22043     22040     22039     22047
     22040     22039     22051     22040     22055     22056     22040     22055     22057
     22040     22055     22061     22041     22040     22042     22041     22040     22055
     22042     22040     22055     22043     22039     22047     22043     22039     22051
     22044     22043     22045     22044     22043     22046     22045     22043     22046
     22047     22039     22051     22048     22047     22049     22048     22047     22050
     22049     22047     22050     22052     22051     22053     22052     22051     22054
     22053     22051     22054     22055     22061     22058     22056     22055     22057
     22056     22055     22061     22057     22055     22061     22058     22062     22063
     22059     22058     22060     22059     22058     22061     22059     22058     22062
     22060     22058     22061     22060     22058     22062     22061     22058     22062
     22062     22063     22064     22062     22063     22065     22062     22063     22066
     22063     22066     22067     22063     22066     22068     22063     22066     22074
     22064     22063     22065     22064     22063     22066     22065     22063     22066
     22066     22068     22069     22066     22074     22075     22066     22074     22076
     22066     22074     22077     22067     22066     22068     22067     22066     22074
     22068     22066     22074     22068     22069     22070     22068     22069     22071
     22069     22071     22072     22069     22071     22073     22069     22071     22083
     22070     22069     22071     22071     22083     22084     22071     22083     22085
     22071     22083     22086     22072     22071     22073     22072     22071     22083
     22073     22071     22083     22074     22077     22078     22075     22074     22076
     22075     22074     22077     22076     22074     22077     22077     22078     22079
     22077     22078     22080     22078     22080     22081     22078     22080     22082
     22078     22080     22130     22079     22078     22080     22080     22130     22131
     22080     22130     22132     22080     22130     22133     22081     22080     22082
     22081     22080     22130     22082     22080     22130     22083     22086     22087
     22083     22086     22088     22083     22086     22089     22084     22083     22085
     22084     22083     22086     22085     22083     22086     22086     22089     22090
     22086     22089     22091     22087     22086     22088     22087     22086     22089
     22088     22086     22089     22089     22091     22092     22089     22091     22093
     22090     22089     22091     22091     22093     22094     22091     22093     22095
     22091     22093     22096     22092     22091     22093     22093     22096     22097
     22093     22096     22098     22094     22093     22095     22094     22093     22096
     22095     22093     22096     22096     22098     22099     22096     22098     22100
     22097     22096     22098     22098     22100     22101     22098     22100     22102
     22098     22100     22103     22099     22098     22100     22100     22103     22104
     22100     22103     22105     22101     22100     22102     22101     22100     22103
     22102     22100     22103     22103     22105     22106     22103     22105     22107
     22104     22103     22105     22105     22107     22108     22105     22107     22109
     22105     22107     22110     22106     22105     22107     22107     22110     22111
     22107     22110     22112     22108     22107     22109     22108     22107     22110
     22109     22107     22110     22110     22112     22113     22110     22112     22114
     22111     22110     22112     22112     22114     22115     22112     22114     22116
     22112     22114     22117     22113     22112     22114     22114     22117     22118
     22114     22117     22119     22114     22117     22120     22115     22114     22116
     22115     22114     22117     22116     22114     22117     22117     22120     22121
     22117     22120     22122     22117     22120     22123     22118     22117     22119
     22118     22117     22120     22119     22117     22120     22120     22123     22124
     22120     22123     22125     22120     22123     22126     22121     22120     22122
     22121     22120     22123     22122     22120     22123     22123     22126     22127
     22123     22126     22128     22123     22126     22129     22124     22123     22125
     22124     22123     22126     22125     22123     22126     22127     22126     22128
     22127     22126     22129     22128     22126     22129     22130     22133     22134
     22130     22133     22135     22130     22133     22136     22131     22130     22132
     22131     22130     22133     22132     22130     22133     22133     22136     22137
     22133     22136     22138     22133     22136     22139     22134     22133     22135
     22134     22133     22136     22135     22133     22136     22136     22139     22140
     22136     22139     22141     22136     22139     22142     22137     22136     22138
     22137     22136     22139     22138     22136     22139     22139     22142     22143
     22139     22142     22144     22139     22142     22145     22140     22139     22141
     22140     22139     22142     22141     22139     22142     22142     22145     22146
     22142     22145     22147     22142     22145     22148     22143     22142     22144
     22143     22142     22145     22144     22142     22145     22145     22148     22149
     22145     22148     22150     22145     22148     22151     22146     22145     22147
     22146     22145     22148     22147     22145     22148     22148     22151     22152
     22148     22151     22153     22148     22151     22154     22149     22148     22150
     22149     22148     22151     22150     22148     22151     22151     22154     22155
     22151     22154     22156     22151     22154     22157     22152     22151     22153
     22152     22151     22154     22153     22151     22154     22154     22157     22158
     22154     22157     22159     22154     22157     22160     22155     22154     22156
     22155     22154     22157     22156     22154     22157     22157     22160     22161
     22157     22160     22162     22157     22160     22163     22158     22157     22159
     22158     22157     22160     22159     22157     22160     22160     22163     22164
     22160     22163     22165     22160     22163     22166     22161     22160     22162
     22161     22160     22163     22162     22160     22163     22163     22166     22167
     22163     22166     22168     22163     22166     22169     22164     22163     22165
     22164     22163     22166     22165     22163     22166     22166     22169     22170
     22166     22169     22171     22166     22169     22172     22167     22166     22168
     22167     22166     22169     22168     22166     22169     22169     22172     22173
     22169     22172     22174     22169     22172     22175     22170     22169     22171
     22170     22169     22172     22171     22169     22172     22172     22175     22176
     22172     22175     22177     22172     22175     22178     22173     22172     22174
     22173     22172     22175     22174     22172     22175     22176     22175     22177
     22176     22175     22178     22177     22175     22178     22179     22181     22182
     22179     22183     22184     22179     22183     22185     22179     22183     22186
     22179     22225     22222     22179     22225     22226     22179     22225     22227
     22180     22179     22181     22180     22179     22183     22180     22179     22225
     22181     22179     22183     22181     22179     22225     22183     22179     22225
     22183     22186     22187     22183     22186     22217     22184     22183     22185
     22184     22183     22186     22185     22183     22186     22186     22187     22188
     22186     22187     22189     22186     22217     22215     22186     22217     22218
     22186     22217     22222     22187     22186     22217     22187     22189     22190
     22187     22189     22191     22187     22189     22192     22188     22187     22189
     22189     22192     22193     22189     22192     22194     22189     22192     22215
     22190     22189     22191     22190     22189     22192     22191     22189     22192
     22192     22194     22195     22192     22194     22196     22192     22194     22204
     22192     22215     22212     22192     22215     22216     22192     22215     22217
     22193     22192     22194     22193     22192     22215     22194     22192     22215
     22194     22196     22197     22194     22196     22198     22194     22196     22199
     22194     22204     22202     22194     22204     22205     22194     22204     22209
     22195     22194     22196     22195     22194     22204     22196     22194     22204
     22196     22199     22200     22196     22199     22201     22196     22199     22202
     22197     22196     22198     22197     22196     22199     22198     22196     22199
     22199     22202     22203     22199     22202     22204     22199     22202     22228
     22200     22199     22201     22200     22199     22202     22201     22199     22202
     22202     22204     22205     22202     22204     22209     22202     22228     22229
     22202     22228     22230     22202     22228     22234     22203     22202     22204
     22203     22202     22228     22204     22202     22228     22204     22205     22206
     22204     22205     22207     22204     22205     22208     22204     22209     22210
     22204     22209     22211     22204     22209     22212     22205     22204     22209
     22206     22205     22207     22206     22205     22208     22207     22205     22208
     22209     22212     22213     22209     22212     22214     22209     22212     22215
     22210     22209     22211     22210     22209     22212     22211     22209     22212
     22212     22215     22216     22212     22215     22217     22213     22212     22214
     22213     22212     22215     22214     22212     22215     22215     22217     22218
     22215     22217     22222     22216     22215     22217     22217     22218     22219
     22217     22218     22220     22217     22218     22221     22217     22222     22223
     22217     22222     22224     22217     22222     22225     22218     22217     22222
     22219     22218     22220     22219     22218     22221     22220     22218     22221
     22222     22225     22226     22222     22225     22227     22223     22222     22224
     22223     22222     22225     22224     22222     22225     22226     22225     22227
     22228     22230     22231     22228     22230     22232     22228     22230     22233
     22228     22234     22235     22228     22234     22236     22228     22234     22237
     22229     22228     22230     22229     22228     22234     22230     22228     22234
     22231     22230     22232     22231     22230     22233     22232     22230     22233
     22234     22237     22238     22234     22237     22239     22234     22237     22240
     22235     22234     22236     22235     22234     22237     22236     22234     22237
     22237     22240     22241     22237     22240     22242     22237     22240     22243
     22238     22237     22239     22238     22237     22240     22239     22237     22240
     22240     22243     22244     22240     22243     22245     22240     22243     22249
     22241     22240     22242     22241     22240     22243     22242     22240     22243
     22243     22245     22246     22243     22245     22247     22243     22245     22248
     22243     22249     22250     22243     22249     22251     22243     22249     22252
     22244     22243     22245     22244     22243     22249     22245     22243     22249
     22246     22245     22247     22246     22245     22248     22247     22245     22248
     22250     22249     22251     22250     22249     22252     22251     22249     22252
     22254     22253     22255     22257     22256     22258     22260     22259     22261
     22263     22262     22264     22266     22265     22267     22269     22268     22270
     22272     22271     22273     22275     22274     22276     22278     22277     22279
     22281     22280     22282     22284     22283     22285     22287     22286     22288
     22290     22289     22291     22293     22292     22294     22296     22295     22297
     22299     22298     22300     22302     22301     22303     22305     22304     22306
     22308     22307     22309     22311     22310     22312     22314     22313     22315
     22317     22316     22318     22320     22319     22321     22323     22322     22324
     22326     22325     22327     22329     22328     22330     22332     22331     22333
     22335     22334     22336     22338     22337     22339     22341     22340     22342
     22344     22343     22345     22347     22346     22348     22350     22349     22351
     22353     22352     22354     22356     22355     22357     22359     22358     22360
     22362     22361     22363     22365     22364     22366     22368     22367     22369
     22371     22370     22372     22374     22373     22375     22377     22376     22378
     22380     22379     22381     22383     22382     22384     22386     22385     22387
     22389     22388     22390     22392     22391     22393     22395     22394     22396
     22398     22397     22399     22401     22400     22402     22404     22403     22405
     22407     22406     22408     22410     22409     22411     22413     22412     22414
     22416     22415     22417     22419     22418     22420     22422     22421     22423
     22425     22424     22426     22428     22427     22429     22431     22430     22432
     22434     22433     22435     22437     22436     22438     22440     22439     22441
     22443     22442     22444     22446     22445     22447     22449     22448     22450
     22452     22451     22453     22455     22454     22456     22458     22457     22459
     22461     22460     22462     22464     22463     22465     22467     22466     22468
     22470     22469     22471     22473     22472     22474     22476     22475     22477
     22479     22478     22480     22482     22481     22483     22485     22484     22486
     22488     22487     22489     22491     22490     22492     22494     22493     22495
     22497     22496     22498     22500     22499     22501     22503     22502     22504
     22506     22505     22507     22509     22508     22510     22512     22511     22513
     22515     22514     22516     22518     22517     22519     22521     22520     22522
     22524     22523     22525     22527     22526     22528     22530     22529     22531
     22533     22532     22534     22536     22535     22537     22539     22538     22540
     22542     22541     22543     22545     22544     22546     22548     22547     22549
     22551     22550     22552     22554     22553     22555     22557     22556     22558
     22560     22559     22561     22563     22562     22564     22566     22565     22567
     22569     22568     22570

     61788 !NPHI: dihedrals
         1         5         7         8         1         5         7         9
         1         5        10        11         1         5        10        12
         1         5        10        16         2         1         5         6
         2         1         5         7         2         1         5        10
         3         1         5         6         3         1         5         7
         3         1         5        10         4         1         5         6
         4         1         5         7         4         1         5        10
         5        10        16        13         6         5         7         8
         6         5         7         9         6         5        10        11
         6         5        10        12         6         5        10        16
         7         5        10        11         7         5        10        12
         7         5        10        16         8         7         5        10
         9         7         5        10        10        16        13        14
        10        16        13        15        10        16        13        17
        11        10        16        13        12        10        16        13
        13        17        18        19        13        17        18        20
        13        17        18        21        14        13        17        18
        15        13        17        18        16        13        17        18
        17        18        21        22        17        18        21        23
        17        18        21        29        18        21        23        24
        18        21        29        30        18        21        29        31
        18        21        29        32        19        18        21        22
        19        18        21        23        19        18        21        29
        20        18        21        22        20        18        21        23
        20        18        21        29        21        23        24        25
        21        23        24        26        21        29        32        33
        22        21        23        24        22        21        29        30
        22        21        29        31        22        21        29        32
        23        21        29        30        23        21        29        31
        23        21        29        32        23        24        26        27
        23        24        26        28        23        24        26        38
        24        23        21        29        24        26        38        39
        24        26        38        40        24        26        38        41
        25        24        26        27        25        24        26        28
        25        24        26        38        26        38        41        42
        26        38        41        43        26        38        41        44
        27        26        38        39        27        26        38        40
        27        26        38        41        28        26        38        39
        28        26        38        40        28        26        38        41
        29        32        33        34        29        32        33        35
        30        29        32        33        31        29        32        33
        32        33        35        36        32        33        35        37
        32        33        35        85        33        35        85        86
        33        35        85        87        33        35        85        88
        34        33        35        36        34        33        35        37
        34        33        35        85        35        85        88        89
        35        85        88        90        35        85        88        91
        36        35        85        86        36        35        85        87
        36        35        85        88        37        35        85        86
        37        35        85        87        37        35        85        88
        38        41        44        45        38        41        44        46
        39        38        41        42        39        38        41        43
        39        38        41        44        40        38        41        42
        40        38        41        43        40        38        41        44
        41        44        46        47        41        44        46        48
        42        41        44        45        42        41        44        46
        43        41        44        45        43        41        44        46
        44        46        48        49        44        46        48        50
        44        46        48        51        45        44        46        47
        45        44        46        48        46        48        51        52
        46        48        51        53        47        46        48        49
        47        46        48        50        47        46        48        51
        48        51        53        54        48        51        53        55
        49        48        51        52        49        48        51        53
        50        48        51        52        50        48        51        53
        51        53        55        56        51        53        55        57
        51        53        55        58        52        51        53        54
        52        51        53        55        53        55        58        59
        53        55        58        60        54        53        55        56
        54        53        55        57        54        53        55        58
        55        58        60        61        55        58        60        62
        56        55        58        59        56        55        58        60
        57        55        58        59        57        55        58        60
        58        60        62        63        58        60        62        64
        58        60        62        65        59        58        60        61
        59        58        60        62        60        62        65        66
        60        62        65        67        61        60        62        63
        61        60        62        64        61        60        62        65
        62        65        67        68        62        65        67        69
        63        62        65        66        63        62        65        67
        64        62        65        66        64        62        65        67
        65        67        69        70        65        67        69        71
        65        67        69        72        66        65        67        68
        66        65        67        69        67        69        72        73
        67        69        72        74        67        69        72        75
        68        67        69        70        68        67        69        71
        68        67        69        72        69        72        75        76
        69        72        75        77        69        72        75        78
        70        69        72        73        70        69        72        74
        70        69        72        75        71        69        72        73
        71        69        72        74        71        69        72        75
        72        75        78        79        72        75        78        80
        72        75        78        81        73        72        75        76
        73        72        75        77        73        72        75        78
        74        72        75        76        74        72        75        77
        74        72        75        78        75        78        81        82
        75        78        81        83        75        78        81        84
        76        75        78        79        76        75        78        80
        76        75        78        81        77        75        78        79
        77        75        78        80        77        75        78        81
        79        78        81        82        79        78        81        83
        79        78        81        84        80        78        81        82
        80        78        81        83        80        78        81        84
        85        88        91        92        85        88        91        93
        85        88        91        94        86        85        88        89
        86        85        88        90        86        85        88        91
        87        85        88        89        87        85        88        90
        87        85        88        91        88        91        94        95
        88        91        94        96        88        91        94        97
        89        88        91        92        89        88        91        93
        89        88        91        94        90        88        91        92
        90        88        91        93        90        88        91        94
        91        94        97        98        91        94        97        99
        91        94        97       100        92        91        94        95
        92        91        94        96        92        91        94        97
        93        91        94        95        93        91        94        96
        93        91        94        97        94        97       100       101
        94        97       100       102        94        97       100       103
        95        94        97        98        95        94        97        99
        95        94        97       100        96        94        97        98
        96        94        97        99        96        94        97       100
        97       100       103       104        97       100       103       105
        97       100       103       106        98        97       100       101
        98        97       100       102        98        97       100       103
        99        97       100       101        99        97       100       102
        99        97       100       103       100       103       106       107
       100       103       106       108       100       103       106       109
       101       100       103       104       101       100       103       105
       101       100       103       106       102       100       103       104
       102       100       103       105       102       100       103       106
       103       106       109       110       103       106       109       111
       103       106       109       112       104       103       106       107
       104       103       106       108       104       103       106       109
       105       103       106       107       105       103       106       108
       105       103       106       109       106       109       112       113
       106       109       112       114       106       109       112       115
       107       106       109       110       107       106       109       111
       107       106       109       112       108       106       109       110
       108       106       109       111       108       106       109       112
       109       112       115       116       109       112       115       117
       109       112       115       118       110       109       112       113
       110       109       112       114       110       109       112       115
       111       109       112       113       111       109       112       114
       111       109       112       115       112       115       118       119
       112       115       118       120       112       115       118       121
       113       112       115       116       113       112       115       117
       113       112       115       118       114       112       115       116
       114       112       115       117       114       112       115       118
       115       118       121       122       115       118       121       123
       115       118       121       124       116       115       118       119
       116       115       118       120       116       115       118       121
       117       115       118       119       117       115       118       120
       117       115       118       121       118       121       124       125
       118       121       124       126       118       121       124       127
       119       118       121       122       119       118       121       123
       119       118       121       124       120       118       121       122
       120       118       121       123       120       118       121       124
       121       124       127       128       121       124       127       129
       121       124       127       130       122       121       124       125
       122       121       124       126       122       121       124       127
       123       121       124       125       123       121       124       126
       123       121       124       127       124       127       130       131
       124       127       130       132       124       127       130       133
       125       124       127       128       125       124       127       129
       125       124       127       130       126       124       127       128
       126       124       127       129       126       124       127       130
       128       127       130       131       128       127       130       132
       128       127       130       133       129       127       130       131
       129       127       130       132       129       127       130       133
       134       138       141       142       134       138       141       172
       134       180       177       172       134       180       177       178
       134       180       177       179       135       134       136       137
       135       134       138       139       135       134       138       140
       135       134       138       141       135       134       180       177
       135       134       180       181       135       134       180       182
       136       134       138       139       136       134       138       140
       136       134       138       141       136       134       180       177
       136       134       180       181       136       134       180       182
       137       136       134       138       137       136       134       180
       138       134       180       177       138       134       180       181
       138       134       180       182       138       141       142       143
       138       141       142       144       138       141       172       170
       138       141       172       173       138       141       172       177
       139       138       134       180       139       138       141       142
       139       138       141       172       140       138       134       180
       140       138       141       142       140       138       141       172
       141       138       134       180       141       142       144       145
       141       142       144       146       141       142       144       147
       141       172       170       147       141       172       170       167
       141       172       170       171       141       172       173       174
       141       172       173       175       141       172       173       176
       141       172       177       178       141       172       177       179
       141       172       177       180       142       141       172       170
       142       141       172       173       142       141       172       177
       142       144       147       148       142       144       147       149
       142       144       147       170       143       142       141       172
       143       142       144       145       143       142       144       146
       143       142       144       147       144       142       141       172
       144       147       149       150       144       147       149       151
       144       147       149       159       144       147       170       167
       144       147       170       171       144       147       170       172
       145       144       147       148       145       144       147       149
       145       144       147       170       146       144       147       148
       146       144       147       149       146       144       147       170
       147       149       151       152       147       149       151       153
       147       149       151       154       147       149       159       157
       147       149       159       160       147       149       159       164
       147       170       167       164       147       170       167       168
       147       170       167       169       147       170       172       173
       147       170       172       177       148       147       149       150
       148       147       149       151       148       147       149       159
       148       147       170       167       148       147       170       171
       148       147       170       172       149       147       170       167
       149       147       170       171       149       147       170       172
       149       151       154       155       149       151       154       156
       149       151       154       157       149       159       157       154
       149       159       157       158       149       159       157       183
       149       159       160       161       149       159       160       162
       149       159       160       163       149       159       164       165
       149       159       164       166       149       159       164       167
       150       149       147       170       150       149       151       152
       150       149       151       153       150       149       151       154
       150       149       159       157       150       149       159       160
       150       149       159       164       151       149       147       170
       151       149       159       157       151       149       159       160
       151       149       159       164       151       154       157       158
       151       154       157       159       151       154       157       183
       152       151       149       159       152       151       154       155
       152       151       154       156       152       151       154       157
       153       151       149       159       153       151       154       155
       153       151       154       156       153       151       154       157
       154       151       149       159       154       157       159       160
       154       157       159       164       154       157       183       184
       154       157       183       185       154       157       183       189
       155       154       157       158       155       154       157       159
       155       154       157       183       156       154       157       158
       156       154       157       159       156       154       157       183
       157       159       160       161       157       159       160       162
       157       159       160       163       157       159       164       165
       157       159       164       166       157       159       164       167
       157       183       185       186       157       183       185       187
       157       183       185       188       157       183       189       190
       157       183       189       191       157       183       189       192
       158       157       159       160       158       157       159       164
       158       157       183       184       158       157       183       185
       158       157       183       189       159       149       147       170
       159       157       183       184       159       157       183       185
       159       157       183       189       159       164       167       168
       159       164       167       169       159       164       167       170
       160       159       157       183       160       159       164       165
       160       159       164       166       160       159       164       167
       161       160       159       164       162       160       159       164
       163       160       159       164       164       159       157       183
       164       167       170       171       164       167       170       172
       165       164       167       168       165       164       167       169
       165       164       167       170       166       164       167       168
       166       164       167       169       166       164       167       170
       167       170       172       173       167       170       172       177
       168       167       170       171       168       167       170       172
       169       167       170       171       169       167       170       172
       170       172       173       174       170       172       173       175
       170       172       173       176       170       172       177       178
       170       172       177       179       170       172       177       180
       171       170       172       173       171       170       172       177
       172       177       180       181       172       177       180       182
       173       172       177       178       173       172       177       179
       173       172       177       180       174       173       172       177
       175       173       172       177       176       173       172       177
       178       177       180       181       178       177       180       182
       179       177       180       181       179       177       180       182
       183       189       192       193       183       189       192       194
       183       189       192       195       184       183       185       186
       184       183       185       187       184       183       185       188
       184       183       189       190       184       183       189       191
       184       183       189       192       185       183       189       190
       185       183       189       191       185       183       189       192
       186       185       183       189       187       185       183       189
       188       185       183       189       189       192       195       196
       189       192       195       197       189       192       195       198
       190       189       192       193       190       189       192       194
       190       189       192       195       191       189       192       193
       191       189       192       194       191       189       192       195
       192       195       198       199       192       195       198       200
       192       195       198       204       193       192       195       196
       193       192       195       197       193       192       195       198
       194       192       195       196       194       192       195       197
       194       192       195       198       195       198       200       201
       195       198       200       202       195       198       200       203
       195       198       204       205       195       198       204       206
       195       198       204       207       196       195       198       199
       196       195       198       200       196       195       198       204
       197       195       198       199       197       195       198       200
       197       195       198       204       199       198       200       201
       199       198       200       202       199       198       200       203
       199       198       204       205       199       198       204       206
       199       198       204       207       200       198       204       205
       200       198       204       206       200       198       204       207
       201       200       198       204       202       200       198       204
       203       200       198       204       208       212       215       216
       208       212       215       217       208       212       215       221
       209       208       212       213       209       208       212       214
       209       208       212       215       210       208       212       213
       210       208       212       214       210       208       212       215
       211       208       212       213       211       208       212       214
       211       208       212       215       212       215       221       218
       213       212       215       216       213       212       215       217
       213       212       215       221       214       212       215       216
       214       212       215       217       214       212       215       221
       215       221       218       219       215       221       218       220
       215       221       218       222       216       215       221       218
       217       215       221       218       218       222       223       224
       218       222       223       225       218       222       223       226
       219       218       222       223       220       218       222       223
       221       218       222       223       222       223       226       227
       222       223       226       228       222       223       226       234
       223       226       228       229       223       226       234       235
       223       226       234       236       223       226       234       237
       224       223       226       227       224       223       226       228
       224       223       226       234       225       223       226       227
       225       223       226       228       225       223       226       234
       226       228       229       230       226       228       229       231
       226       234       237       238       227       226       228       229
       227       226       234       235       227       226       234       236
       227       226       234       237       228       226       234       235
       228       226       234       236       228       226       234       237
       228       229       231       232       228       229       231       233
       228       229       231       243       229       228       226       234
       229       231       243       244       229       231       243       245
       229       231       243       246       230       229       231       232
       230       229       231       233       230       229       231       243
       231       243       246       247       231       243       246       248
       231       243       246       249       232       231       243       244
       232       231       243       245       232       231       243       246
       233       231       243       244       233       231       243       245
       233       231       243       246       234       237       238       239
       234       237       238       240       235       234       237       238
       236       234       237       238       237       238       240       241
       237       238       240       242       237       238       240       290
       238       240       290       291       238       240       290       292
       238       240       290       293       239       238       240       241
       239       238       240       242       239       238       240       290
       240       290       293       294       240       290       293       295
       240       290       293       296       241       240       290       291
       241       240       290       292       241       240       290       293
       242       240       290       291       242       240       290       292
       242       240       290       293       243       246       249       250
       243       246       249       251       243       246       249       252
       244       243       246       247       244       243       246       248
       244       243       246       249       245       243       246       247
       245       243       246       248       245       243       246       249
       246       249       252       253       246       249       252       254
       246       249       252       255       247       246       249       250
       247       246       249       251       247       246       249       252
       248       246       249       250       248       246       249       251
       248       246       249       252       249       252       255       256
       249       252       255       257       249       252       255       258
       250       249       252       253       250       249       252       254
       250       249       252       255       251       249       252       253
       251       249       252       254       251       249       252       255
       252       255       258       259       252       255       258       260
       252       255       258       261       253       252       255       256
       253       252       255       257       253       252       255       258
       254       252       255       256       254       252       255       257
       254       252       255       258       255       258       261       262
       255       258       261       263       256       255       258       259
       256       255       258       260       256       255       258       261
       257       255       258       259       257       255       258       260
       257       255       258       261       258       261       263       264
       258       261       263       265       259       258       261       262
       259       258       261       263       260       258       261       262
       260       258       261       263       261       263       265       266
       261       263       265       267       261       263       265       268
       262       261       263       264       262       261       263       265
       263       265       268       269       263       265       268       270
       263       265       268       271       264       263       265       266
       264       263       265       267       264       263       265       268
       265       268       271       272       265       268       271       273
       265       268       271       274       266       265       268       269
       266       265       268       270       266       265       268       271
       267       265       268       269       267       265       268       270
       267       265       268       271       268       271       274       275
       268       271       274       276       268       271       274       277
       269       268       271       272       269       268       271       273
       269       268       271       274       270       268       271       272
       270       268       271       273       270       268       271       274
       271       274       277       278       271       274       277       279
       271       274       277       280       272       271       274       275
       272       271       274       276       272       271       274       277
       273       271       274       275       273       271       274       276
       273       271       274       277       274       277       280       281
       274       277       280       282       274       277       280       283
       275       274       277       278       275       274       277       279
       275       274       277       280       276       274       277       278
       276       274       277       279       276       274       277       280
       277       280       283       284       277       280       283       285
       277       280       283       286       278       277       280       281
       278       277       280       282       278       277       280       283
       279       277       280       281       279       277       280       282
       279       277       280       283       280       283       286       287
       280       283       286       288       280       283       286       289
       281       280       283       284       281       280       283       285
       281       280       283       286       282       280       283       284
       282       280       283       285       282       280       283       286
       284       283       286       287       284       283       286       288
       284       283       286       289       285       283       286       287
       285       283       286       288       285       283       286       289
       290       293       296       297       290       293       296       298
       290       293       296       299       291       290       293       294
       291       290       293       295       291       290       293       296
       292       290       293       294       292       290       293       295
       292       290       293       296       293       296       299       300
       293       296       299       301       293       296       299       302
       294       293       296       297       294       293       296       298
       294       293       296       299       295       293       296       297
       295       293       296       298       295       293       296       299
       296       299       302       303       296       299       302       304
       296       299       302       305       297       296       299       300
       297       296       299       301       297       296       299       302
       298       296       299       300       298       296       299       301
       298       296       299       302       299       302       305       306
       299       302       305       307       299       302       305       308
       300       299       302       303       300       299       302       304
       300       299       302       305       301       299       302       303
       301       299       302       304       301       299       302       305
       302       305       308       309       302       305       308       310
       302       305       308       311       303       302       305       306
       303       302       305       307       303       302       305       308
       304       302       305       306       304       302       305       307
       304       302       305       308       305       308       311       312
       305       308       311       313       305       308       311       314
       306       305       308       309       306       305       308       310
       306       305       308       311       307       305       308       309
       307       305       308       310       307       305       308       311
       308       311       314       315       308       311       314       316
       308       311       314       317       309       308       311       312
       309       308       311       313       309       308       311       314
       310       308       311       312       310       308       311       313
       310       308       311       314       311       314       317       318
       311       314       317       319       311       314       317       320
       312       311       314       315       312       311       314       316
       312       311       314       317       313       311       314       315
       313       311       314       316       313       311       314       317
       314       317       320       321       314       317       320       322
       314       317       320       323       315       314       317       318
       315       314       317       319       315       314       317       320
       316       314       317       318       316       314       317       319
       316       314       317       320       317       320       323       324
       317       320       323       325       317       320       323       326
       318       317       320       321       318       317       320       322
       318       317       320       323       319       317       320       321
       319       317       320       322       319       317       320       323
       320       323       326       327       320       323       326       328
       320       323       326       329       321       320       323       324
       321       320       323       325       321       320       323       326
       322       320       323       324       322       320       323       325
       322       320       323       326       323       326       329       330
       323       326       329       331       323       326       329       332
       324       323       326       327       324       323       326       328
       324       323       326       329       325       323       326       327
       325       323       326       328       325       323       326       329
       326       329       332       333       326       329       332       334
       326       329       332       335       327       326       329       330
       327       326       329       331       327       326       329       332
       328       326       329       330       328       326       329       331
       328       326       329       332       329       332       335       336
       329       332       335       337       329       332       335       338
       330       329       332       333       330       329       332       334
       330       329       332       335       331       329       332       333
       331       329       332       334       331       329       332       335
       333       332       335       336       333       332       335       337
       333       332       335       338       334       332       335       336
       334       332       335       337       334       332       335       338
       339       343       346       347       339       343       346       377
       339       385       382       377       339       385       382       383
       339       385       382       384       340       339       341       342
       340       339       343       344       340       339       343       345
       340       339       343       346       340       339       385       382
       340       339       385       386       340       339       385       387
       341       339       343       344       341       339       343       345
       341       339       343       346       341       339       385       382
       341       339       385       386       341       339       385       387
       342       341       339       343       342       341       339       385
       343       339       385       382       343       339       385       386
       343       339       385       387       343       346       347       348
       343       346       347       349       343       346       377       375
       343       346       377       378       343       346       377       382
       344       343       339       385       344       343       346       347
       344       343       346       377       345       343       339       385
       345       343       346       347       345       343       346       377
       346       343       339       385       346       347       349       350
       346       347       349       351       346       347       349       352
       346       377       375       352       346       377       375       372
       346       377       375       376       346       377       378       379
       346       377       378       380       346       377       378       381
       346       377       382       383       346       377       382       384
       346       377       382       385       347       346       377       375
       347       346       377       378       347       346       377       382
       347       349       352       353       347       349       352       354
       347       349       352       375       348       347       346       377
       348       347       349       350       348       347       349       351
       348       347       349       352       349       347       346       377
       349       352       354       355       349       352       354       356
       349       352       354       364       349       352       375       372
       349       352       375       376       349       352       375       377
       350       349       352       353       350       349       352       354
       350       349       352       375       351       349       352       353
       351       349       352       354       351       349       352       375
       352       354       356       357       352       354       356       358
       352       354       356       359       352       354       364       362
       352       354       364       365       352       354       364       369
       352       375       372       369       352       375       372       373
       352       375       372       374       352       375       377       378
       352       375       377       382       353       352       354       355
       353       352       354       356       353       352       354       364
       353       352       375       372       353       352       375       376
       353       352       375       377       354       352       375       372
       354       352       375       376       354       352       375       377
       354       356       359       360       354       356       359       361
       354       356       359       362       354       364       362       359
       354       364       362       363       354       364       362       388
       354       364       365       366       354       364       365       367
       354       364       365       368       354       364       369       370
       354       364       369       371       354       364       369       372
       355       354       352       375       355       354       356       357
       355       354       356       358       355       354       356       359
       355       354       364       362       355       354       364       365
       355       354       364       369       356       354       352       375
       356       354       364       362       356       354       364       365
       356       354       364       369       356       359       362       363
       356       359       362       364       356       359       362       388
       357       356       354       364       357       356       359       360
       357       356       359       361       357       356       359       362
       358       356       354       364       358       356       359       360
       358       356       359       361       358       356       359       362
       359       356       354       364       359       362       364       365
       359       362       364       369       359       362       388       389
       359       362       388       390       359       362       388       394
       360       359       362       363       360       359       362       364
       360       359       362       388       361       359       362       363
       361       359       362       364       361       359       362       388
       362       364       365       366       362       364       365       367
       362       364       365       368       362       364       369       370
       362       364       369       371       362       364       369       372
       362       388       390       391       362       388       390       392
       362       388       390       393       362       388       394       395
       362       388       394       396       362       388       394       397
       363       362       364       365       363       362       364       369
       363       362       388       389       363       362       388       390
       363       362       388       394       364       354       352       375
       364       362       388       389       364       362       388       390
       364       362       388       394       364       369       372       373
       364       369       372       374       364       369       372       375
       365       364       362       388       365       364       369       370
       365       364       369       371       365       364       369       372
       366       365       364       369       367       365       364       369
       368       365       364       369       369       364       362       388
       369       372       375       376       369       372       375       377
       370       369       372       373       370       369       372       374
       370       369       372       375       371       369       372       373
       371       369       372       374       371       369       372       375
       372       375       377       378       372       375       377       382
       373       372       375       376       373       372       375       377
       374       372       375       376       374       372       375       377
       375       377       378       379       375       377       378       380
       375       377       378       381       375       377       382       383
       375       377       382       384       375       377       382       385
       376       375       377       378       376       375       377       382
       377       382       385       386       377       382       385       387
       378       377       382       383       378       377       382       384
       378       377       382       385       379       378       377       382
       380       378       377       382       381       378       377       382
       383       382       385       386       383       382       385       387
       384       382       385       386       384       382       385       387
       388       394       397       398       388       394       397       399
       388       394       397       400       389       388       390       391
       389       388       390       392       389       388       390       393
       389       388       394       395       389       388       394       396
       389       388       394       397       390       388       394       395
       390       388       394       396       390       388       394       397
       391       390       388       394       392       390       388       394
       393       390       388       394       394       397       400       401
       394       397       400       402       394       397       400       403
       395       394       397       398       395       394       397       399
       395       394       397       400       396       394       397       398
       396       394       397       399       396       394       397       400
       397       400       403       404       397       400       403       405
       397       400       403       409       398       397       400       401
       398       397       400       402       398       397       400       403
       399       397       400       401       399       397       400       402
       399       397       400       403       400       403       405       406
       400       403       405       407       400       403       405       408
       400       403       409       410       400       403       409       411
       400       403       409       412       401       400       403       404
       401       400       403       405       401       400       403       409
       402       400       403       404       402       400       403       405
       402       400       403       409       404       403       405       406
       404       403       405       407       404       403       405       408
       404       403       409       410       404       403       409       411
       404       403       409       412       405       403       409       410
       405       403       409       411       405       403       409       412
       406       405       403       409       407       405       403       409
       408       405       403       409       413       414       429       430
       413       414       429       431       413       414       429       435
       414       413       417       418       414       413       417       419
       414       413       417       420       414       413       421       422
       414       413       421       423       414       413       421       424
       414       413       425       426       414       413       425       427
       414       413       425       428       414       429       435       432
       415       414       413       417       415       414       413       421
       415       414       413       425       415       414       429       430
       415       414       429       431       415       414       429       435
       416       414       413       417       416       414       413       421
       416       414       413       425       416       414       429       430
       416       414       429       431       416       414       429       435
       417       413       414       429       417       413       421       422
       417       413       421       423       417       413       421       424
       417       413       425       426       417       413       425       427
       417       413       425       428       418       417       413       421
       418       417       413       425       419       417       413       421
       419       417       413       425       420       417       413       421
       420       417       413       425       421       413       414       429
       421       413       425       426       421       413       425       427
       421       413       425       428       422       421       413       425
       423       421       413       425       424       421       413       425
       425       413       414       429       429       435       432       433
       429       435       432       434       429       435       432       436
       430       429       435       432       431       429       435       432
       432       436       437       438       432       436       437       439
       432       436       437       440       433       432       436       437
       434       432       436       437       435       432       436       437
       436       437       440       441       436       437       440       442
       436       437       440       448       437       440       442       443
       437       440       448       449       437       440       448       450
       437       440       448       451       438       437       440       441
       438       437       440       442       438       437       440       448
       439       437       440       441       439       437       440       442
       439       437       440       448       440       442       443       444
       440       442       443       445       440       448       451       452
       441       440       442       443       441       440       448       449
       441       440       448       450       441       440       448       451
       442       440       448       449       442       440       448       450
       442       440       448       451       442       443       445       446
       442       443       445       447       442       443       445       457
       443       442       440       448       443       445       457       458
       443       445       457       459       443       445       457       460
       444       443       445       446       444       443       445       447
       444       443       445       457       445       457       460       461
       445       457       460       462       445       457       460       463
       446       445       457       458       446       445       457       459
       446       445       457       460       447       445       457       458
       447       445       457       459       447       445       457       460
       448       451       452       453       448       451       452       454
       449       448       451       452       450       448       451       452
       451       452       454       455       451       452       454       456
       451       452       454       504       452       454       504       505
       452       454       504       506       452       454       504       507
       453       452       454       455       453       452       454       456
       453       452       454       504       454       504       507       508
       454       504       507       509       454       504       507       510
       455       454       504       505       455       454       504       506
       455       454       504       507       456       454       504       505
       456       454       504       506       456       454       504       507
       457       460       463       464       457       460       463       465
       458       457       460       461       458       457       460       462
       458       457       460       463       459       457       460       461
       459       457       460       462       459       457       460       463
       460       463       465       466       460       463       465       467
       461       460       463       464       461       460       463       465
       462       460       463       464       462       460       463       465
       463       465       467       468       463       465       467       469
       463       465       467       470       464       463       465       466
       464       463       465       467       465       467       470       471
       465       467       470       472       466       465       467       468
       466       465       467       469       466       465       467       470
       467       470       472       473       467       470       472       474
       468       467       470       471       468       467       470       472
       469       467       470       471       469       467       470       472
       470       472       474       475       470       472       474       476
       470       472       474       477       471       470       472       473
       471       470       472       474       472       474       477       478
       472       474       477       479       473       472       474       475
       473       472       474       476       473       472       474       477
       474       477       479       480       474       477       479       481
       475       474       477       478       475       474       477       479
       476       474       477       478       476       474       477       479
       477       479       481       482       477       479       481       483
       477       479       481       484       478       477       479       480
       478       477       479       481       479       481       484       485
       479       481       484       486       480       479       481       482
       480       479       481       483       480       479       481       484
       481       484       486       487       481       484       486       488
       482       481       484       485       482       481       484       486
       483       481       484       485       483       481       484       486
       484       486       488       489       484       486       488       490
       484       486       488       491       485       484       486       487
       485       484       486       488       486       488       491       492
       486       488       491       493       486       488       491       494
       487       486       488       489       487       486       488       490
       487       486       488       491       488       491       494       495
       488       491       494       496       488       491       494       497
       489       488       491       492       489       488       491       493
       489       488       491       494       490       488       491       492
       490       488       491       493       490       488       491       494
       491       494       497       498       491       494       497       499
       491       494       497       500       492       491       494       495
       492       491       494       496       492       491       494       497
       493       491       494       495       493       491       494       496
       493       491       494       497       494       497       500       501
       494       497       500       502       494       497       500       503
       495       494       497       498       495       494       497       499
       495       494       497       500       496       494       497       498
       496       494       497       499       496       494       497       500
       498       497       500       501       498       497       500       502
       498       497       500       503       499       497       500       501
       499       497       500       502       499       497       500       503
       504       507       510       511       504       507       510       512
       504       507       510       513       505       504       507       508
       505       504       507       509       505       504       507       510
       506       504       507       508       506       504       507       509
       506       504       507       510       507       510       513       514
       507       510       513       515       507       510       513       516
       508       507       510       511       508       507       510       512
       508       507       510       513       509       507       510       511
       509       507       510       512       509       507       510       513
       510       513       516       517       510       513       516       518
       510       513       516       519       511       510       513       514
       511       510       513       515       511       510       513       516
       512       510       513       514       512       510       513       515
       512       510       513       516       513       516       519       520
       513       516       519       521       513       516       519       522
       514       513       516       517       514       513       516       518
       514       513       516       519       515       513       516       517
       515       513       516       518       515       513       516       519
       516       519       522       523       516       519       522       524
       516       519       522       525       517       516       519       520
       517       516       519       521       517       516       519       522
       518       516       519       520       518       516       519       521
       518       516       519       522       519       522       525       526
       519       522       525       527       519       522       525       528
       520       519       522       523       520       519       522       524
       520       519       522       525       521       519       522       523
       521       519       522       524       521       519       522       525
       522       525       528       529       522       525       528       530
       522       525       528       531       523       522       525       526
       523       522       525       527       523       522       525       528
       524       522       525       526       524       522       525       527
       524       522       525       528       525       528       531       532
       525       528       531       533       525       528       531       534
       526       525       528       529       526       525       528       530
       526       525       528       531       527       525       528       529
       527       525       528       530       527       525       528       531
       528       531       534       535       528       531       534       536
       528       531       534       537       529       528       531       532
       529       528       531       533       529       528       531       534
       530       528       531       532       530       528       531       533
       530       528       531       534       531       534       537       538
       531       534       537       539       531       534       537       540
       532       531       534       535       532       531       534       536
       532       531       534       537       533       531       534       535
       533       531       534       536       533       531       534       537
       534       537       540       541       534       537       540       542
       534       537       540       543       535       534       537       538
       535       534       537       539       535       534       537       540
       536       534       537       538       536       534       537       539
       536       534       537       540       537       540       543       544
       537       540       543       545       537       540       543       546
       538       537       540       541       538       537       540       542
       538       537       540       543       539       537       540       541
       539       537       540       542       539       537       540       543
       540       543       546       547       540       543       546       548
       540       543       546       549       541       540       543       544
       541       540       543       545       541       540       543       546
       542       540       543       544       542       540       543       545
       542       540       543       546       543       546       549       550
       543       546       549       551       543       546       549       552
       544       543       546       547       544       543       546       548
       544       543       546       549       545       543       546       547
       545       543       546       548       545       543       546       549
       547       546       549       550       547       546       549       551
       547       546       549       552       548       546       549       550
       548       546       549       551       548       546       549       552
       553       566       569       570       553       566       569       571
       553       566       569       576       554       553       558       559
       554       553       558       560       554       553       558       561
       554       553       562       563       554       553       562       564
       554       553       562       565       554       553       566       567
       554       553       566       568       554       553       566       569
       555       554       553       558       555       554       553       562
       555       554       553       566       556       554       553       558
       556       554       553       562       556       554       553       566
       557       554       553       558       557       554       553       562
       557       554       553       566       558       553       562       563
       558       553       562       564       558       553       562       565
       558       553       566       567       558       553       566       568
       558       553       566       569       559       558       553       562
       559       558       553       566       560       558       553       562
       560       558       553       566       561       558       553       562
       561       558       553       566       562       553       566       567
       562       553       566       568       562       553       566       569
       563       562       553       566       564       562       553       566
       565       562       553       566       566       569       576       572
       567       566       569       570       567       566       569       571
       567       566       569       576       568       566       569       570
       568       566       569       571       568       566       569       576
       569       576       572       573       569       576       572       574
       569       576       572       575       570       569       576       572
       571       569       576       572       572       575       577       578
       572       575       577       579       572       575       577       582
       573       572       575       577       574       572       575       577
       575       577       582       580       575       577       582       583
       575       577       582       584       576       572       575       577
       577       582       580       581       577       582       580       632
       577       582       584       585       577       582       584       586
       577       582       584       588       578       577       582       580
       578       577       582       583       578       577       582       584
       579       577       582       580       579       577       582       583
       579       577       582       584       580       582       584       585
       580       582       584       586       580       582       584       588
       580       632       634       635       580       632       634       636
       580       632       634       637       581       580       582       583
       581       580       582       584       581       580       632       633
       581       580       632       634       582       580       632       633
       582       580       632       634       582       584       586       587
       582       584       588       589       582       584       588       590
       583       582       580       632       583       582       584       585
       583       582       584       586       583       582       584       588
       584       582       580       632       584       588       590       591
       584       588       590       592       585       584       586       587
       585       584       588       589       585       584       588       590
       586       584       588       589       586       584       588       590
       587       586       584       588       588       590       592       593
       588       590       592       594       588       590       592       595
       589       588       590       591       589       588       590       592
       590       592       595       596       590       592       595       597
       590       592       595       598       591       590       592       593
       591       590       592       594       591       590       592       595
       592       595       598       599       592       595       598       600
       592       595       598       601       593       592       595       596
       593       592       595       597       593       592       595       598
       594       592       595       596       594       592       595       597
       594       592       595       598       595       598       601       602
       595       598       601       603       595       598       601       604
       596       595       598       599       596       595       598       600
       596       595       598       601       597       595       598       599
       597       595       598       600       597       595       598       601
       598       601       604       605       598       601       604       606
       598       601       604       607       599       598       601       602
       599       598       601       603       599       598       601       604
       600       598       601       602       600       598       601       603
       600       598       601       604       601       604       607       608
       601       604       607       609       601       604       607       610
       602       601       604       605       602       601       604       606
       602       601       604       607       603       601       604       605
       603       601       604       606       603       601       604       607
       604       607       610       611       604       607       610       612
       604       607       610       613       605       604       607       608
       605       604       607       609       605       604       607       610
       606       604       607       608       606       604       607       609
       606       604       607       610       607       610       613       614
       607       610       613       615       607       610       613       616
       608       607       610       611       608       607       610       612
       608       607       610       613       609       607       610       611
       609       607       610       612       609       607       610       613
       610       613       616       617       610       613       616       618
       610       613       616       619       611       610       613       614
       611       610       613       615       611       610       613       616
       612       610       613       614       612       610       613       615
       612       610       613       616       613       616       619       620
       613       616       619       621       613       616       619       622
       614       613       616       617       614       613       616       618
       614       613       616       619       615       613       616       617
       615       613       616       618       615       613       616       619
       616       619       622       623       616       619       622       624
       616       619       622       625       617       616       619       620
       617       616       619       621       617       616       619       622
       618       616       619       620       618       616       619       621
       618       616       619       622       619       622       625       626
       619       622       625       627       619       622       625       628
       620       619       622       623       620       619       622       624
       620       619       622       625       621       619       622       623
       621       619       622       624       621       619       622       625
       622       625       628       629       622       625       628       630
       622       625       628       631       623       622       625       626
       623       622       625       627       623       622       625       628
       624       622       625       626       624       622       625       627
       624       622       625       628       626       625       628       629
       626       625       628       630       626       625       628       631
       627       625       628       629       627       625       628       630
       627       625       628       631       632       634       637       638
       632       634       637       639       632       634       637       640
       633       632       634       635       633       632       634       636
       633       632       634       637       634       637       640       641
       634       637       640       642       634       637       640       643
       635       634       637       638       635       634       637       639
       635       634       637       640       636       634       637       638
       636       634       637       639       636       634       637       640
       637       640       643       644       637       640       643       645
       637       640       643       646       638       637       640       641
       638       637       640       642       638       637       640       643
       639       637       640       641       639       637       640       642
       639       637       640       643       640       643       646       647
       640       643       646       648       640       643       646       649
       641       640       643       644       641       640       643       645
       641       640       643       646       642       640       643       644
       642       640       643       645       642       640       643       646
       643       646       649       650       643       646       649       651
       643       646       649       652       644       643       646       647
       644       643       646       648       644       643       646       649
       645       643       646       647       645       643       646       648
       645       643       646       649       646       649       652       653
       646       649       652       654       646       649       652       655
       647       646       649       650       647       646       649       651
       647       646       649       652       648       646       649       650
       648       646       649       651       648       646       649       652
       649       652       655       656       649       652       655       657
       650       649       652       653       650       649       652       654
       650       649       652       655       651       649       652       653
       651       649       652       654       651       649       652       655
       652       655       657       658       652       655       657       659
       653       652       655       656       653       652       655       657
       654       652       655       656       654       652       655       657
       655       657       659       660       655       657       659       661
       655       657       659       662       656       655       657       658
       656       655       657       659       657       659       662       663
       657       659       662       664       657       659       662       665
       658       657       659       660       658       657       659       661
       658       657       659       662       659       662       665       666
       659       662       665       667       659       662       665       668
       660       659       662       663       660       659       662       664
       660       659       662       665       661       659       662       663
       661       659       662       664       661       659       662       665
       662       665       668       669       662       665       668       670
       662       665       668       671       663       662       665       666
       663       662       665       667       663       662       665       668
       664       662       665       666       664       662       665       667
       664       662       665       668       665       668       671       672
       665       668       671       673       665       668       671       674
       666       665       668       669       666       665       668       670
       666       665       668       671       667       665       668       669
       667       665       668       670       667       665       668       671
       668       671       674       675       668       671       674       676
       668       671       674       677       669       668       671       672
       669       668       671       673       669       668       671       674
       670       668       671       672       670       668       671       673
       670       668       671       674       671       674       677       678
       671       674       677       679       671       674       677       680
       672       671       674       675       672       671       674       676
       672       671       674       677       673       671       674       675
       673       671       674       676       673       671       674       677
       674       677       680       681       674       677       680       682
       674       677       680       683       675       674       677       678
       675       674       677       679       675       674       677       680
       676       674       677       678       676       674       677       679
       676       674       677       680       678       677       680       681
       678       677       680       682       678       677       680       683
       679       677       680       681       679       677       680       682
       679       677       680       683       684       688       691       692
       684       688       691       722       684       730       727       722
       684       730       727       728       684       730       727       729
       685       684       686       687       685       684       688       689
       685       684       688       690       685       684       688       691
       685       684       730       727       685       684       730       731
       685       684       730       732       686       684       688       689
       686       684       688       690       686       684       688       691
       686       684       730       727       686       684       730       731
       686       684       730       732       687       686       684       688
       687       686       684       730       688       684       730       727
       688       684       730       731       688       684       730       732
       688       691       692       693       688       691       692       694
       688       691       722       720       688       691       722       723
       688       691       722       727       689       688       684       730
       689       688       691       692       689       688       691       722
       690       688       684       730       690       688       691       692
       690       688       691       722       691       688       684       730
       691       692       694       695       691       692       694       696
       691       692       694       697       691       722       720       697
       691       722       720       717       691       722       720       721
       691       722       723       724       691       722       723       725
       691       722       723       726       691       722       727       728
       691       722       727       729       691       722       727       730
       692       691       722       720       692       691       722       723
       692       691       722       727       692       694       697       698
       692       694       697       699       692       694       697       720
       693       692       691       722       693       692       694       695
       693       692       694       696       693       692       694       697
       694       692       691       722       694       697       699       700
       694       697       699       701       694       697       699       709
       694       697       720       717       694       697       720       721
       694       697       720       722       695       694       697       698
       695       694       697       699       695       694       697       720
       696       694       697       698       696       694       697       699
       696       694       697       720       697       699       701       702
       697       699       701       703       697       699       701       704
       697       699       709       707       697       699       709       710
       697       699       709       714       697       720       717       714
       697       720       717       718       697       720       717       719
       697       720       722       723       697       720       722       727
       698       697       699       700       698       697       699       701
       698       697       699       709       698       697       720       717
       698       697       720       721       698       697       720       722
       699       697       720       717       699       697       720       721
       699       697       720       722       699       701       704       705
       699       701       704       706       699       701       704       707
       699       709       707       704       699       709       707       708
       699       709       707       733       699       709       710       711
       699       709       710       712       699       709       710       713
       699       709       714       715       699       709       714       716
       699       709       714       717       700       699       697       720
       700       699       701       702       700       699       701       703
       700       699       701       704       700       699       709       707
       700       699       709       710       700       699       709       714
       701       699       697       720       701       699       709       707
       701       699       709       710       701       699       709       714
       701       704       707       708       701       704       707       709
       701       704       707       733       702       701       699       709
       702       701       704       705       702       701       704       706
       702       701       704       707       703       701       699       709
       703       701       704       705       703       701       704       706
       703       701       704       707       704       701       699       709
       704       707       709       710       704       707       709       714
       704       707       733       734       704       707       733       735
       704       707       733       739       705       704       707       708
       705       704       707       709       705       704       707       733
       706       704       707       708       706       704       707       709
       706       704       707       733       707       709       710       711
       707       709       710       712       707       709       710       713
       707       709       714       715       707       709       714       716
       707       709       714       717       707       733       735       736
       707       733       735       737       707       733       735       738
       707       733       739       740       707       733       739       741
       707       733       739       742       708       707       709       710
       708       707       709       714       708       707       733       734
       708       707       733       735       708       707       733       739
       709       699       697       720       709       707       733       734
       709       707       733       735       709       707       733       739
       709       714       717       718       709       714       717       719
       709       714       717       720       710       709       707       733
       710       709       714       715       710       709       714       716
       710       709       714       717       711       710       709       714
       712       710       709       714       713       710       709       714
       714       709       707       733       714       717       720       721
       714       717       720       722       715       714       717       718
       715       714       717       719       715       714       717       720
       716       714       717       718       716       714       717       719
       716       714       717       720       717       720       722       723
       717       720       722       727       718       717       720       721
       718       717       720       722       719       717       720       721
       719       717       720       722       720       722       723       724
       720       722       723       725       720       722       723       726
       720       722       727       728       720       722       727       729
       720       722       727       730       721       720       722       723
       721       720       722       727       722       727       730       731
       722       727       730       732       723       722       727       728
       723       722       727       729       723       722       727       730
       724       723       722       727       725       723       722       727
       726       723       722       727       728       727       730       731
       728       727       730       732       729       727       730       731
       729       727       730       732       733       739       742       743
       733       739       742       744       733       739       742       745
       734       733       735       736       734       733       735       737
       734       733       735       738       734       733       739       740
       734       733       739       741       734       733       739       742
       735       733       739       740       735       733       739       741
       735       733       739       742       736       735       733       739
       737       735       733       739       738       735       733       739
       739       742       745       746       739       742       745       747
       739       742       745       748       740       739       742       743
       740       739       742       744       740       739       742       745
       741       739       742       743       741       739       742       744
       741       739       742       745       742       745       748       749
       742       745       748       750       742       745       748       754
       743       742       745       746       743       742       745       747
       743       742       745       748       744       742       745       746
       744       742       745       747       744       742       745       748
       745       748       750       751       745       748       750       752
       745       748       750       753       745       748       754       755
       745       748       754       756       745       748       754       757
       746       745       748       749       746       745       748       750
       746       745       748       754       747       745       748       749
       747       745       748       750       747       745       748       754
       749       748       750       751       749       748       750       752
       749       748       750       753       749       748       754       755
       749       748       754       756       749       748       754       757
       750       748       754       755       750       748       754       756
       750       748       754       757       751       750       748       754
       752       750       748       754       753       750       748       754
       758       762       765       766       758       762       765       796
       758       804       801       796       758       804       801       802
       758       804       801       803       759       758       760       761
       759       758       762       763       759       758       762       764
       759       758       762       765       759       758       804       801
       759       758       804       805       759       758       804       806
       760       758       762       763       760       758       762       764
       760       758       762       765       760       758       804       801
       760       758       804       805       760       758       804       806
       761       760       758       762       761       760       758       804
       762       758       804       801       762       758       804       805
       762       758       804       806       762       765       766       767
       762       765       766       768       762       765       796       794
       762       765       796       797       762       765       796       801
       763       762       758       804       763       762       765       766
       763       762       765       796       764       762       758       804
       764       762       765       766       764       762       765       796
       765       762       758       804       765       766       768       769
       765       766       768       770       765       766       768       771
       765       796       794       771       765       796       794       791
       765       796       794       795       765       796       797       798
       765       796       797       799       765       796       797       800
       765       796       801       802       765       796       801       803
       765       796       801       804       766       765       796       794
       766       765       796       797       766       765       796       801
       766       768       771       772       766       768       771       773
       766       768       771       794       767       766       765       796
       767       766       768       769       767       766       768       770
       767       766       768       771       768       766       765       796
       768       771       773       774       768       771       773       775
       768       771       773       783       768       771       794       791
       768       771       794       795       768       771       794       796
       769       768       771       772       769       768       771       773
       769       768       771       794       770       768       771       772
       770       768       771       773       770       768       771       794
       771       773       775       776       771       773       775       777
       771       773       775       778       771       773       783       781
       771       773       783       784       771       773       783       788
       771       794       791       788       771       794       791       792
       771       794       791       793       771       794       796       797
       771       794       796       801       772       771       773       774
       772       771       773       775       772       771       773       783
       772       771       794       791       772       771       794       795
       772       771       794       796       773       771       794       791
       773       771       794       795       773       771       794       796
       773       775       778       779       773       775       778       780
       773       775       778       781       773       783       781       778
       773       783       781       782       773       783       781       807
       773       783       784       785       773       783       784       786
       773       783       784       787       773       783       788       789
       773       783       788       790       773       783       788       791
       774       773       771       794       774       773       775       776
       774       773       775       777       774       773       775       778
       774       773       783       781       774       773       783       784
       774       773       783       788       775       773       771       794
       775       773       783       781       775       773       783       784
       775       773       783       788       775       778       781       782
       775       778       781       783       775       778       781       807
       776       775       773       783       776       775       778       779
       776       775       778       780       776       775       778       781
       777       775       773       783       777       775       778       779
       777       775       778       780       777       775       778       781
       778       775       773       783       778       781       783       784
       778       781       783       788       778       781       807       808
       778       781       807       809       778       781       807       813
       779       778       781       782       779       778       781       783
       779       778       781       807       780       778       781       782
       780       778       781       783       780       778       781       807
       781       783       784       785       781       783       784       786
       781       783       784       787       781       783       788       789
       781       783       788       790       781       783       788       791
       781       807       809       810       781       807       809       811
       781       807       809       812       781       807       813       814
       781       807       813       815       781       807       813       816
       782       781       783       784       782       781       783       788
       782       781       807       808       782       781       807       809
       782       781       807       813       783       773       771       794
       783       781       807       808       783       781       807       809
       783       781       807       813       783       788       791       792
       783       788       791       793       783       788       791       794
       784       783       781       807       784       783       788       789
       784       783       788       790       784       783       788       791
       785       784       783       788       786       784       783       788
       787       784       783       788       788       783       781       807
       788       791       794       795       788       791       794       796
       789       788       791       792       789       788       791       793
       789       788       791       794       790       788       791       792
       790       788       791       793       790       788       791       794
       791       794       796       797       791       794       796       801
       792       791       794       795       792       791       794       796
       793       791       794       795       793       791       794       796
       794       796       797       798       794       796       797       799
       794       796       797       800       794       796       801       802
       794       796       801       803       794       796       801       804
       795       794       796       797       795       794       796       801
       796       801       804       805       796       801       804       806
       797       796       801       802       797       796       801       803
       797       796       801       804       798       797       796       801
       799       797       796       801       800       797       796       801
       802       801       804       805       802       801       804       806
       803       801       804       805       803       801       804       806
       807       813       816       817       807       813       816       818
       807       813       816       819       808       807       809       810
       808       807       809       811       808       807       809       812
       808       807       813       814       808       807       813       815
       808       807       813       816       809       807       813       814
       809       807       813       815       809       807       813       816
       810       809       807       813       811       809       807       813
       812       809       807       813       813       816       819       820
       813       816       819       821       813       816       819       822
       814       813       816       817       814       813       816       818
       814       813       816       819       815       813       816       817
       815       813       816       818       815       813       816       819
       816       819       822       823       816       819       822       824
       816       819       822       828       817       816       819       820
       817       816       819       821       817       816       819       822
       818       816       819       820       818       816       819       821
       818       816       819       822       819       822       824       825
       819       822       824       826       819       822       824       827
       819       822       828       829       819       822       828       830
       819       822       828       831       820       819       822       823
       820       819       822       824       820       819       822       828
       821       819       822       823       821       819       822       824
       821       819       822       828       823       822       824       825
       823       822       824       826       823       822       824       827
       823       822       828       829       823       822       828       830
       823       822       828       831       824       822       828       829
       824       822       828       830       824       822       828       831
       825       824       822       828       826       824       822       828
       827       824       822       828       832       845       848       849
       832       845       848       850       832       845       848       855
       833       832       837       838       833       832       837       839
       833       832       837       840       833       832       841       842
       833       832       841       843       833       832       841       844
       833       832       845       846       833       832       845       847
       833       832       845       848       834       833       832       837
       834       833       832       841       834       833       832       845
       835       833       832       837       835       833       832       841
       835       833       832       845       836       833       832       837
       836       833       832       841       836       833       832       845
       837       832       841       842       837       832       841       843
       837       832       841       844       837       832       845       846
       837       832       845       847       837       832       845       848
       838       837       832       841       838       837       832       845
       839       837       832       841       839       837       832       845
       840       837       832       841       840       837       832       845
       841       832       845       846       841       832       845       847
       841       832       845       848       842       841       832       845
       843       841       832       845       844       841       832       845
       845       848       855       851       846       845       848       849
       846       845       848       850       846       845       848       855
       847       845       848       849       847       845       848       850
       847       845       848       855       848       855       851       852
       848       855       851       853       848       855       851       854
       849       848       855       851       850       848       855       851
       851       854       856       857       851       854       856       858
       851       854       856       861       852       851       854       856
       853       851       854       856       854       856       861       859
       854       856       861       862       854       856       861       863
       855       851       854       856       856       861       859       860
       856       861       859       911       856       861       863       864
       856       861       863       865       856       861       863       867
       857       856       861       859       857       856       861       862
       857       856       861       863       858       856       861       859
       858       856       861       862       858       856       861       863
       859       861       863       864       859       861       863       865
       859       861       863       867       859       911       913       914
       859       911       913       915       859       911       913       916
       860       859       861       862       860       859       861       863
       860       859       911       912       860       859       911       913
       861       859       911       912       861       859       911       913
       861       863       865       866       861       863       867       868
       861       863       867       869       862       861       859       911
       862       861       863       864       862       861       863       865
       862       861       863       867       863       861       859       911
       863       867       869       870       863       867       869       871
       864       863       865       866       864       863       867       868
       864       863       867       869       865       863       867       868
       865       863       867       869       866       865       863       867
       867       869       871       872       867       869       871       873
       867       869       871       874       868       867       869       870
       868       867       869       871       869       871       874       875
       869       871       874       876       869       871       874       877
       870       869       871       872       870       869       871       873
       870       869       871       874       871       874       877       878
       871       874       877       879       871       874       877       880
       872       871       874       875       872       871       874       876
       872       871       874       877       873       871       874       875
       873       871       874       876       873       871       874       877
       874       877       880       881       874       877       880       882
       874       877       880       883       875       874       877       878
       875       874       877       879       875       874       877       880
       876       874       877       878       876       874       877       879
       876       874       877       880       877       880       883       884
       877       880       883       885       877       880       883       886
       878       877       880       881       878       877       880       882
       878       877       880       883       879       877       880       881
       879       877       880       882       879       877       880       883
       880       883       886       887       880       883       886       888
       880       883       886       889       881       880       883       884
       881       880       883       885       881       880       883       886
       882       880       883       884       882       880       883       885
       882       880       883       886       883       886       889       890
       883       886       889       891       883       886       889       892
       884       883       886       887       884       883       886       888
       884       883       886       889       885       883       886       887
       885       883       886       888       885       883       886       889
       886       889       892       893       886       889       892       894
       886       889       892       895       887       886       889       890
       887       886       889       891       887       886       889       892
       888       886       889       890       888       886       889       891
       888       886       889       892       889       892       895       896
       889       892       895       897       889       892       895       898
       890       889       892       893       890       889       892       894
       890       889       892       895       891       889       892       893
       891       889       892       894       891       889       892       895
       892       895       898       899       892       895       898       900
       892       895       898       901       893       892       895       896
       893       892       895       897       893       892       895       898
       894       892       895       896       894       892       895       897
       894       892       895       898       895       898       901       902
       895       898       901       903       895       898       901       904
       896       895       898       899       896       895       898       900
       896       895       898       901       897       895       898       899
       897       895       898       900       897       895       898       901
       898       901       904       905       898       901       904       906
       898       901       904       907       899       898       901       902
       899       898       901       903       899       898       901       904
       900       898       901       902       900       898       901       903
       900       898       901       904       901       904       907       908
       901       904       907       909       901       904       907       910
       902       901       904       905       902       901       904       906
       902       901       904       907       903       901       904       905
       903       901       904       906       903       901       904       907
       905       904       907       908       905       904       907       909
       905       904       907       910       906       904       907       908
       906       904       907       909       906       904       907       910
       911       913       916       917       911       913       916       918
       911       913       916       919       912       911       913       914
       912       911       913       915       912       911       913       916
       913       916       919       920       913       916       919       921
       913       916       919       922       914       913       916       917
       914       913       916       918       914       913       916       919
       915       913       916       917       915       913       916       918
       915       913       916       919       916       919       922       923
       916       919       922       924       916       919       922       925
       917       916       919       920       917       916       919       921
       917       916       919       922       918       916       919       920
       918       916       919       921       918       916       919       922
       919       922       925       926       919       922       925       927
       919       922       925       928       920       919       922       923
       920       919       922       924       920       919       922       925
       921       919       922       923       921       919       922       924
       921       919       922       925       922       925       928       929
       922       925       928       930       922       925       928       931
       923       922       925       926       923       922       925       927
       923       922       925       928       924       922       925       926
       924       922       925       927       924       922       925       928
       925       928       931       932       925       928       931       933
       925       928       931       934       926       925       928       929
       926       925       928       930       926       925       928       931
       927       925       928       929       927       925       928       930
       927       925       928       931       928       931       934       935
       928       931       934       936       929       928       931       932
       929       928       931       933       929       928       931       934
       930       928       931       932       930       928       931       933
       930       928       931       934       931       934       936       937
       931       934       936       938       932       931       934       935
       932       931       934       936       933       931       934       935
       933       931       934       936       934       936       938       939
       934       936       938       940       934       936       938       941
       935       934       936       937       935       934       936       938
       936       938       941       942       936       938       941       943
       936       938       941       944       937       936       938       939
       937       936       938       940       937       936       938       941
       938       941       944       945       938       941       944       946
       938       941       944       947       939       938       941       942
       939       938       941       943       939       938       941       944
       940       938       941       942       940       938       941       943
       940       938       941       944       941       944       947       948
       941       944       947       949       941       944       947       950
       942       941       944       945       942       941       944       946
       942       941       944       947       943       941       944       945
       943       941       944       946       943       941       944       947
       944       947       950       951       944       947       950       952
       944       947       950       953       945       944       947       948
       945       944       947       949       945       944       947       950
       946       944       947       948       946       944       947       949
       946       944       947       950       947       950       953       954
       947       950       953       955       947       950       953       956
       948       947       950       951       948       947       950       952
       948       947       950       953       949       947       950       951
       949       947       950       952       949       947       950       953
       950       953       956       957       950       953       956       958
       950       953       956       959       951       950       953       954
       951       950       953       955       951       950       953       956
       952       950       953       954       952       950       953       955
       952       950       953       956       953       956       959       960
       953       956       959       961       953       956       959       962
       954       953       956       957       954       953       956       958
       954       953       956       959       955       953       956       957
       955       953       956       958       955       953       956       959
       957       956       959       960       957       956       959       961
       957       956       959       962       958       956       959       960
       958       956       959       961       958       956       959       962
       963       967       970       971       963       967       970       972
       963       967       970       976       964       963       967       968
       964       963       967       969       964       963       967       970
       965       963       967       968       965       963       967       969
       965       963       967       970       966       963       967       968
       966       963       967       969       966       963       967       970
       967       970       976       973       968       967       970       971
       968       967       970       972       968       967       970       976
       969       967       970       971       969       967       970       972
       969       967       970       976       970       976       973       974
       970       976       973       975       970       976       973       977
       971       970       976       973       972       970       976       973
       973       977       978       979       973       977       978       980
       973       977       978       981       974       973       977       978
       975       973       977       978       976       973       977       978
       977       978       981       982       977       978       981       983
       977       978       981       989       978       981       983       984
       978       981       989       990       978       981       989       991
       978       981       989       992       979       978       981       982
       979       978       981       983       979       978       981       989
       980       978       981       982       980       978       981       983
       980       978       981       989       981       983       984       985
       981       983       984       986       981       989       992       993
       982       981       983       984       982       981       989       990
       982       981       989       991       982       981       989       992
       983       981       989       990       983       981       989       991
       983       981       989       992       983       984       986       987
       983       984       986       988       983       984       986       998
       984       983       981       989       984       986       998       999
       984       986       998      1000       984       986       998      1001
       985       984       986       987       985       984       986       988
       985       984       986       998       986       998      1001      1002
       986       998      1001      1003       986       998      1001      1004
       987       986       998       999       987       986       998      1000
       987       986       998      1001       988       986       998       999
       988       986       998      1000       988       986       998      1001
       989       992       993       994       989       992       993       995
       990       989       992       993       991       989       992       993
       992       993       995       996       992       993       995       997
       992       993       995      1045       993       995      1045      1046
       993       995      1045      1047       993       995      1045      1048
       994       993       995       996       994       993       995       997
       994       993       995      1045       995      1045      1048      1049
       995      1045      1048      1050       995      1045      1048      1051
       996       995      1045      1046       996       995      1045      1047
       996       995      1045      1048       997       995      1045      1046
       997       995      1045      1047       997       995      1045      1048
       998      1001      1004      1005       998      1001      1004      1006
       998      1001      1004      1007       999       998      1001      1002
       999       998      1001      1003       999       998      1001      1004
      1000       998      1001      1002      1000       998      1001      1003
      1000       998      1001      1004      1001      1004      1007      1008
      1001      1004      1007      1009      1001      1004      1007      1010
      1002      1001      1004      1005      1002      1001      1004      1006
      1002      1001      1004      1007      1003      1001      1004      1005
      1003      1001      1004      1006      1003      1001      1004      1007
      1004      1007      1010      1011      1004      1007      1010      1012
      1004      1007      1010      1013      1005      1004      1007      1008
      1005      1004      1007      1009      1005      1004      1007      1010
      1006      1004      1007      1008      1006      1004      1007      1009
      1006      1004      1007      1010      1007      1010      1013      1014
      1007      1010      1013      1015      1007      1010      1013      1016
      1008      1007      1010      1011      1008      1007      1010      1012
      1008      1007      1010      1013      1009      1007      1010      1011
      1009      1007      1010      1012      1009      1007      1010      1013
      1010      1013      1016      1017      1010      1013      1016      1018
      1011      1010      1013      1014      1011      1010      1013      1015
      1011      1010      1013      1016      1012      1010      1013      1014
      1012      1010      1013      1015      1012      1010      1013      1016
      1013      1016      1018      1019      1013      1016      1018      1020
      1014      1013      1016      1017      1014      1013      1016      1018
      1015      1013      1016      1017      1015      1013      1016      1018
      1016      1018      1020      1021      1016      1018      1020      1022
      1016      1018      1020      1023      1017      1016      1018      1019
      1017      1016      1018      1020      1018      1020      1023      1024
      1018      1020      1023      1025      1018      1020      1023      1026
      1019      1018      1020      1021      1019      1018      1020      1022
      1019      1018      1020      1023      1020      1023      1026      1027
      1020      1023      1026      1028      1020      1023      1026      1029
      1021      1020      1023      1024      1021      1020      1023      1025
      1021      1020      1023      1026      1022      1020      1023      1024
      1022      1020      1023      1025      1022      1020      1023      1026
      1023      1026      1029      1030      1023      1026      1029      1031
      1023      1026      1029      1032      1024      1023      1026      1027
      1024      1023      1026      1028      1024      1023      1026      1029
      1025      1023      1026      1027      1025      1023      1026      1028
      1025      1023      1026      1029      1026      1029      1032      1033
      1026      1029      1032      1034      1026      1029      1032      1035
      1027      1026      1029      1030      1027      1026      1029      1031
      1027      1026      1029      1032      1028      1026      1029      1030
      1028      1026      1029      1031      1028      1026      1029      1032
      1029      1032      1035      1036      1029      1032      1035      1037
      1029      1032      1035      1038      1030      1029      1032      1033
      1030      1029      1032      1034      1030      1029      1032      1035
      1031      1029      1032      1033      1031      1029      1032      1034
      1031      1029      1032      1035      1032      1035      1038      1039
      1032      1035      1038      1040      1032      1035      1038      1041
      1033      1032      1035      1036      1033      1032      1035      1037
      1033      1032      1035      1038      1034      1032      1035      1036
      1034      1032      1035      1037      1034      1032      1035      1038
      1035      1038      1041      1042      1035      1038      1041      1043
      1035      1038      1041      1044      1036      1035      1038      1039
      1036      1035      1038      1040      1036      1035      1038      1041
      1037      1035      1038      1039      1037      1035      1038      1040
      1037      1035      1038      1041      1039      1038      1041      1042
      1039      1038      1041      1043      1039      1038      1041      1044
      1040      1038      1041      1042      1040      1038      1041      1043
      1040      1038      1041      1044      1045      1048      1051      1052
      1045      1048      1051      1053      1045      1048      1051      1054
      1046      1045      1048      1049      1046      1045      1048      1050
      1046      1045      1048      1051      1047      1045      1048      1049
      1047      1045      1048      1050      1047      1045      1048      1051
      1048      1051      1054      1055      1048      1051      1054      1056
      1048      1051      1054      1057      1049      1048      1051      1052
      1049      1048      1051      1053      1049      1048      1051      1054
      1050      1048      1051      1052      1050      1048      1051      1053
      1050      1048      1051      1054      1051      1054      1057      1058
      1051      1054      1057      1059      1051      1054      1057      1060
      1052      1051      1054      1055      1052      1051      1054      1056
      1052      1051      1054      1057      1053      1051      1054      1055
      1053      1051      1054      1056      1053      1051      1054      1057
      1054      1057      1060      1061      1054      1057      1060      1062
      1054      1057      1060      1063      1055      1054      1057      1058
      1055      1054      1057      1059      1055      1054      1057      1060
      1056      1054      1057      1058      1056      1054      1057      1059
      1056      1054      1057      1060      1057      1060      1063      1064
      1057      1060      1063      1065      1057      1060      1063      1066
      1058      1057      1060      1061      1058      1057      1060      1062
      1058      1057      1060      1063      1059      1057      1060      1061
      1059      1057      1060      1062      1059      1057      1060      1063
      1060      1063      1066      1067      1060      1063      1066      1068
      1060      1063      1066      1069      1061      1060      1063      1064
      1061      1060      1063      1065      1061      1060      1063      1066
      1062      1060      1063      1064      1062      1060      1063      1065
      1062      1060      1063      1066      1063      1066      1069      1070
      1063      1066      1069      1071      1063      1066      1069      1072
      1064      1063      1066      1067      1064      1063      1066      1068
      1064      1063      1066      1069      1065      1063      1066      1067
      1065      1063      1066      1068      1065      1063      1066      1069
      1066      1069      1072      1073      1066      1069      1072      1074
      1066      1069      1072      1075      1067      1066      1069      1070
      1067      1066      1069      1071      1067      1066      1069      1072
      1068      1066      1069      1070      1068      1066      1069      1071
      1068      1066      1069      1072      1069      1072      1075      1076
      1069      1072      1075      1077      1069      1072      1075      1078
      1070      1069      1072      1073      1070      1069      1072      1074
      1070      1069      1072      1075      1071      1069      1072      1073
      1071      1069      1072      1074      1071      1069      1072      1075
      1072      1075      1078      1079      1072      1075      1078      1080
      1072      1075      1078      1081      1073      1072      1075      1076
      1073      1072      1075      1077      1073      1072      1075      1078
      1074      1072      1075      1076      1074      1072      1075      1077
      1074      1072      1075      1078      1075      1078      1081      1082
      1075      1078      1081      1083      1075      1078      1081      1084
      1076      1075      1078      1079      1076      1075      1078      1080
      1076      1075      1078      1081      1077      1075      1078      1079
      1077      1075      1078      1080      1077      1075      1078      1081
      1078      1081      1084      1085      1078      1081      1084      1086
      1078      1081      1084      1087      1079      1078      1081      1082
      1079      1078      1081      1083      1079      1078      1081      1084
      1080      1078      1081      1082      1080      1078      1081      1083
      1080      1078      1081      1084      1081      1084      1087      1088
      1081      1084      1087      1089      1081      1084      1087      1090
      1082      1081      1084      1085      1082      1081      1084      1086
      1082      1081      1084      1087      1083      1081      1084      1085
      1083      1081      1084      1086      1083      1081      1084      1087
      1084      1087      1090      1091      1084      1087      1090      1092
      1084      1087      1090      1093      1085      1084      1087      1088
      1085      1084      1087      1089      1085      1084      1087      1090
      1086      1084      1087      1088      1086      1084      1087      1089
      1086      1084      1087      1090      1088      1087      1090      1091
      1088      1087      1090      1092      1088      1087      1090      1093
      1089      1087      1090      1091      1089      1087      1090      1092
      1089      1087      1090      1093      1094      1107      1110      1111
      1094      1107      1110      1112      1094      1107      1110      1117
      1095      1094      1099      1100      1095      1094      1099      1101
      1095      1094      1099      1102      1095      1094      1103      1104
      1095      1094      1103      1105      1095      1094      1103      1106
      1095      1094      1107      1108      1095      1094      1107      1109
      1095      1094      1107      1110      1096      1095      1094      1099
      1096      1095      1094      1103      1096      1095      1094      1107
      1097      1095      1094      1099      1097      1095      1094      1103
      1097      1095      1094      1107      1098      1095      1094      1099
      1098      1095      1094      1103      1098      1095      1094      1107
      1099      1094      1103      1104      1099      1094      1103      1105
      1099      1094      1103      1106      1099      1094      1107      1108
      1099      1094      1107      1109      1099      1094      1107      1110
      1100      1099      1094      1103      1100      1099      1094      1107
      1101      1099      1094      1103      1101      1099      1094      1107
      1102      1099      1094      1103      1102      1099      1094      1107
      1103      1094      1107      1108      1103      1094      1107      1109
      1103      1094      1107      1110      1104      1103      1094      1107
      1105      1103      1094      1107      1106      1103      1094      1107
      1107      1110      1117      1113      1108      1107      1110      1111
      1108      1107      1110      1112      1108      1107      1110      1117
      1109      1107      1110      1111      1109      1107      1110      1112
      1109      1107      1110      1117      1110      1117      1113      1114
      1110      1117      1113      1115      1110      1117      1113      1116
      1111      1110      1117      1113      1112      1110      1117      1113
      1113      1116      1118      1119      1113      1116      1118      1120
      1113      1116      1118      1123      1114      1113      1116      1118
      1115      1113      1116      1118      1116      1118      1123      1121
      1116      1118      1123      1124      1116      1118      1123      1125
      1117      1113      1116      1118      1118      1123      1121      1122
      1118      1123      1121      1173      1118      1123      1125      1126
      1118      1123      1125      1127      1118      1123      1125      1129
      1119      1118      1123      1121      1119      1118      1123      1124
      1119      1118      1123      1125      1120      1118      1123      1121
      1120      1118      1123      1124      1120      1118      1123      1125
      1121      1123      1125      1126      1121      1123      1125      1127
      1121      1123      1125      1129      1121      1173      1175      1176
      1121      1173      1175      1177      1121      1173      1175      1178
      1122      1121      1123      1124      1122      1121      1123      1125
      1122      1121      1173      1174      1122      1121      1173      1175
      1123      1121      1173      1174      1123      1121      1173      1175
      1123      1125      1127      1128      1123      1125      1129      1130
      1123      1125      1129      1131      1124      1123      1121      1173
      1124      1123      1125      1126      1124      1123      1125      1127
      1124      1123      1125      1129      1125      1123      1121      1173
      1125      1129      1131      1132      1125      1129      1131      1133
      1126      1125      1127      1128      1126      1125      1129      1130
      1126      1125      1129      1131      1127      1125      1129      1130
      1127      1125      1129      1131      1128      1127      1125      1129
      1129      1131      1133      1134      1129      1131      1133      1135
      1129      1131      1133      1136      1130      1129      1131      1132
      1130      1129      1131      1133      1131      1133      1136      1137
      1131      1133      1136      1138      1131      1133      1136      1139
      1132      1131      1133      1134      1132      1131      1133      1135
      1132      1131      1133      1136      1133      1136      1139      1140
      1133      1136      1139      1141      1133      1136      1139      1142
      1134      1133      1136      1137      1134      1133      1136      1138
      1134      1133      1136      1139      1135      1133      1136      1137
      1135      1133      1136      1138      1135      1133      1136      1139
      1136      1139      1142      1143      1136      1139      1142      1144
      1136      1139      1142      1145      1137      1136      1139      1140
      1137      1136      1139      1141      1137      1136      1139      1142
      1138      1136      1139      1140      1138      1136      1139      1141
      1138      1136      1139      1142      1139      1142      1145      1146
      1139      1142      1145      1147      1139      1142      1145      1148
      1140      1139      1142      1143      1140      1139      1142      1144
      1140      1139      1142      1145      1141      1139      1142      1143
      1141      1139      1142      1144      1141      1139      1142      1145
      1142      1145      1148      1149      1142      1145      1148      1150
      1142      1145      1148      1151      1143      1142      1145      1146
      1143      1142      1145      1147      1143      1142      1145      1148
      1144      1142      1145      1146      1144      1142      1145      1147
      1144      1142      1145      1148      1145      1148      1151      1152
      1145      1148      1151      1153      1145      1148      1151      1154
      1146      1145      1148      1149      1146      1145      1148      1150
      1146      1145      1148      1151      1147      1145      1148      1149
      1147      1145      1148      1150      1147      1145      1148      1151
      1148      1151      1154      1155      1148      1151      1154      1156
      1148      1151      1154      1157      1149      1148      1151      1152
      1149      1148      1151      1153      1149      1148      1151      1154
      1150      1148      1151      1152      1150      1148      1151      1153
      1150      1148      1151      1154      1151      1154      1157      1158
      1151      1154      1157      1159      1151      1154      1157      1160
      1152      1151      1154      1155      1152      1151      1154      1156
      1152      1151      1154      1157      1153      1151      1154      1155
      1153      1151      1154      1156      1153      1151      1154      1157
      1154      1157      1160      1161      1154      1157      1160      1162
      1154      1157      1160      1163      1155      1154      1157      1158
      1155      1154      1157      1159      1155      1154      1157      1160
      1156      1154      1157      1158      1156      1154      1157      1159
      1156      1154      1157      1160      1157      1160      1163      1164
      1157      1160      1163      1165      1157      1160      1163      1166
      1158      1157      1160      1161      1158      1157      1160      1162
      1158      1157      1160      1163      1159      1157      1160      1161
      1159      1157      1160      1162      1159      1157      1160      1163
      1160      1163      1166      1167      1160      1163      1166      1168
      1160      1163      1166      1169      1161      1160      1163      1164
      1161      1160      1163      1165      1161      1160      1163      1166
      1162      1160      1163      1164      1162      1160      1163      1165
      1162      1160      1163      1166      1163      1166      1169      1170
      1163      1166      1169      1171      1163      1166      1169      1172
      1164      1163      1166      1167      1164      1163      1166      1168
      1164      1163      1166      1169      1165      1163      1166      1167
      1165      1163      1166      1168      1165      1163      1166      1169
      1167      1166      1169      1170      1167      1166      1169      1171
      1167      1166      1169      1172      1168      1166      1169      1170
      1168      1166      1169      1171      1168      1166      1169      1172
      1173      1175      1178      1179      1173      1175      1178      1180
      1173      1175      1178      1181      1174      1173      1175      1176
      1174      1173      1175      1177      1174      1173      1175      1178
      1175      1178      1181      1182      1175      1178      1181      1183
      1175      1178      1181      1184      1176      1175      1178      1179
      1176      1175      1178      1180      1176      1175      1178      1181
      1177      1175      1178      1179      1177      1175      1178      1180
      1177      1175      1178      1181      1178      1181      1184      1185
      1178      1181      1184      1186      1178      1181      1184      1187
      1179      1178      1181      1182      1179      1178      1181      1183
      1179      1178      1181      1184      1180      1178      1181      1182
      1180      1178      1181      1183      1180      1178      1181      1184
      1181      1184      1187      1188      1181      1184      1187      1189
      1181      1184      1187      1190      1182      1181      1184      1185
      1182      1181      1184      1186      1182      1181      1184      1187
      1183      1181      1184      1185      1183      1181      1184      1186
      1183      1181      1184      1187      1184      1187      1190      1191
      1184      1187      1190      1192      1184      1187      1190      1193
      1185      1184      1187      1188      1185      1184      1187      1189
      1185      1184      1187      1190      1186      1184      1187      1188
      1186      1184      1187      1189      1186      1184      1187      1190
      1187      1190      1193      1194      1187      1190      1193      1195
      1187      1190      1193      1196      1188      1187      1190      1191
      1188      1187      1190      1192      1188      1187      1190      1193
      1189      1187      1190      1191      1189      1187      1190      1192
      1189      1187      1190      1193      1190      1193      1196      1197
      1190      1193      1196      1198      1191      1190      1193      1194
      1191      1190      1193      1195      1191      1190      1193      1196
      1192      1190      1193      1194      1192      1190      1193      1195
      1192      1190      1193      1196      1193      1196      1198      1199
      1193      1196      1198      1200      1194      1193      1196      1197
      1194      1193      1196      1198      1195      1193      1196      1197
      1195      1193      1196      1198      1196      1198      1200      1201
      1196      1198      1200      1202      1196      1198      1200      1203
      1197      1196      1198      1199      1197      1196      1198      1200
      1198      1200      1203      1204      1198      1200      1203      1205
      1198      1200      1203      1206      1199      1198      1200      1201
      1199      1198      1200      1202      1199      1198      1200      1203
      1200      1203      1206      1207      1200      1203      1206      1208
      1200      1203      1206      1209      1201      1200      1203      1204
      1201      1200      1203      1205      1201      1200      1203      1206
      1202      1200      1203      1204      1202      1200      1203      1205
      1202      1200      1203      1206      1203      1206      1209      1210
      1203      1206      1209      1211      1203      1206      1209      1212
      1204      1203      1206      1207      1204      1203      1206      1208
      1204      1203      1206      1209      1205      1203      1206      1207
      1205      1203      1206      1208      1205      1203      1206      1209
      1206      1209      1212      1213      1206      1209      1212      1214
      1206      1209      1212      1215      1207      1206      1209      1210
      1207      1206      1209      1211      1207      1206      1209      1212
      1208      1206      1209      1210      1208      1206      1209      1211
      1208      1206      1209      1212      1209      1212      1215      1216
      1209      1212      1215      1217      1209      1212      1215      1218
      1210      1209      1212      1213      1210      1209      1212      1214
      1210      1209      1212      1215      1211      1209      1212      1213
      1211      1209      1212      1214      1211      1209      1212      1215
      1212      1215      1218      1219      1212      1215      1218      1220
      1212      1215      1218      1221      1213      1212      1215      1216
      1213      1212      1215      1217      1213      1212      1215      1218
      1214      1212      1215      1216      1214      1212      1215      1217
      1214      1212      1215      1218      1215      1218      1221      1222
      1215      1218      1221      1223      1215      1218      1221      1224
      1216      1215      1218      1219      1216      1215      1218      1220
      1216      1215      1218      1221      1217      1215      1218      1219
      1217      1215      1218      1220      1217      1215      1218      1221
      1219      1218      1221      1222      1219      1218      1221      1223
      1219      1218      1221      1224      1220      1218      1221      1222
      1220      1218      1221      1223      1220      1218      1221      1224
      1225      1229      1232      1233      1225      1229      1232      1263
      1225      1271      1268      1263      1225      1271      1268      1269
      1225      1271      1268      1270      1226      1225      1227      1228
      1226      1225      1229      1230      1226      1225      1229      1231
      1226      1225      1229      1232      1226      1225      1271      1268
      1226      1225      1271      1272      1226      1225      1271      1273
      1227      1225      1229      1230      1227      1225      1229      1231
      1227      1225      1229      1232      1227      1225      1271      1268
      1227      1225      1271      1272      1227      1225      1271      1273
      1228      1227      1225      1229      1228      1227      1225      1271
      1229      1225      1271      1268      1229      1225      1271      1272
      1229      1225      1271      1273      1229      1232      1233      1234
      1229      1232      1233      1235      1229      1232      1263      1261
      1229      1232      1263      1264      1229      1232      1263      1268
      1230      1229      1225      1271      1230      1229      1232      1233
      1230      1229      1232      1263      1231      1229      1225      1271
      1231      1229      1232      1233      1231      1229      1232      1263
      1232      1229      1225      1271      1232      1233      1235      1236
      1232      1233      1235      1237      1232      1233      1235      1238
      1232      1263      1261      1238      1232      1263      1261      1258
      1232      1263      1261      1262      1232      1263      1264      1265
      1232      1263      1264      1266      1232      1263      1264      1267
      1232      1263      1268      1269      1232      1263      1268      1270
      1232      1263      1268      1271      1233      1232      1263      1261
      1233      1232      1263      1264      1233      1232      1263      1268
      1233      1235      1238      1239      1233      1235      1238      1240
      1233      1235      1238      1261      1234      1233      1232      1263
      1234      1233      1235      1236      1234      1233      1235      1237
      1234      1233      1235      1238      1235      1233      1232      1263
      1235      1238      1240      1241      1235      1238      1240      1242
      1235      1238      1240      1250      1235      1238      1261      1258
      1235      1238      1261      1262      1235      1238      1261      1263
      1236      1235      1238      1239      1236      1235      1238      1240
      1236      1235      1238      1261      1237      1235      1238      1239
      1237      1235      1238      1240      1237      1235      1238      1261
      1238      1240      1242      1243      1238      1240      1242      1244
      1238      1240      1242      1245      1238      1240      1250      1248
      1238      1240      1250      1251      1238      1240      1250      1255
      1238      1261      1258      1255      1238      1261      1258      1259
      1238      1261      1258      1260      1238      1261      1263      1264
      1238      1261      1263      1268      1239      1238      1240      1241
      1239      1238      1240      1242      1239      1238      1240      1250
      1239      1238      1261      1258      1239      1238      1261      1262
      1239      1238      1261      1263      1240      1238      1261      1258
      1240      1238      1261      1262      1240      1238      1261      1263
      1240      1242      1245      1246      1240      1242      1245      1247
      1240      1242      1245      1248      1240      1250      1248      1245
      1240      1250      1248      1249      1240      1250      1248      1274
      1240      1250      1251      1252      1240      1250      1251      1253
      1240      1250      1251      1254      1240      1250      1255      1256
      1240      1250      1255      1257      1240      1250      1255      1258
      1241      1240      1238      1261      1241      1240      1242      1243
      1241      1240      1242      1244      1241      1240      1242      1245
      1241      1240      1250      1248      1241      1240      1250      1251
      1241      1240      1250      1255      1242      1240      1238      1261
      1242      1240      1250      1248      1242      1240      1250      1251
      1242      1240      1250      1255      1242      1245      1248      1249
      1242      1245      1248      1250      1242      1245      1248      1274
      1243      1242      1240      1250      1243      1242      1245      1246
      1243      1242      1245      1247      1243      1242      1245      1248
      1244      1242      1240      1250      1244      1242      1245      1246
      1244      1242      1245      1247      1244      1242      1245      1248
      1245      1242      1240      1250      1245      1248      1250      1251
      1245      1248      1250      1255      1245      1248      1274      1275
      1245      1248      1274      1276      1245      1248      1274      1280
      1246      1245      1248      1249      1246      1245      1248      1250
      1246      1245      1248      1274      1247      1245      1248      1249
      1247      1245      1248      1250      1247      1245      1248      1274
      1248      1250      1251      1252      1248      1250      1251      1253
      1248      1250      1251      1254      1248      1250      1255      1256
      1248      1250      1255      1257      1248      1250      1255      1258
      1248      1274      1276      1277      1248      1274      1276      1278
      1248      1274      1276      1279      1248      1274      1280      1281
      1248      1274      1280      1282      1248      1274      1280      1283
      1249      1248      1250      1251      1249      1248      1250      1255
      1249      1248      1274      1275      1249      1248      1274      1276
      1249      1248      1274      1280      1250      1240      1238      1261
      1250      1248      1274      1275      1250      1248      1274      1276
      1250      1248      1274      1280      1250      1255      1258      1259
      1250      1255      1258      1260      1250      1255      1258      1261
      1251      1250      1248      1274      1251      1250      1255      1256
      1251      1250      1255      1257      1251      1250      1255      1258
      1252      1251      1250      1255      1253      1251      1250      1255
      1254      1251      1250      1255      1255      1250      1248      1274
      1255      1258      1261      1262      1255      1258      1261      1263
      1256      1255      1258      1259      1256      1255      1258      1260
      1256      1255      1258      1261      1257      1255      1258      1259
      1257      1255      1258      1260      1257      1255      1258      1261
      1258      1261      1263      1264      1258      1261      1263      1268
      1259      1258      1261      1262      1259      1258      1261      1263
      1260      1258      1261      1262      1260      1258      1261      1263
      1261      1263      1264      1265      1261      1263      1264      1266
      1261      1263      1264      1267      1261      1263      1268      1269
      1261      1263      1268      1270      1261      1263      1268      1271
      1262      1261      1263      1264      1262      1261      1263      1268
      1263      1268      1271      1272      1263      1268      1271      1273
      1264      1263      1268      1269      1264      1263      1268      1270
      1264      1263      1268      1271      1265      1264      1263      1268
      1266      1264      1263      1268      1267      1264      1263      1268
      1269      1268      1271      1272      1269      1268      1271      1273
      1270      1268      1271      1272      1270      1268      1271      1273
      1274      1280      1283      1284      1274      1280      1283      1285
      1274      1280      1283      1286      1275      1274      1276      1277
      1275      1274      1276      1278      1275      1274      1276      1279
      1275      1274      1280      1281      1275      1274      1280      1282
      1275      1274      1280      1283      1276      1274      1280      1281
      1276      1274      1280      1282      1276      1274      1280      1283
      1277      1276      1274      1280      1278      1276      1274      1280
      1279      1276      1274      1280      1280      1283      1286      1287
      1280      1283      1286      1288      1280      1283      1286      1289
      1281      1280      1283      1284      1281      1280      1283      1285
      1281      1280      1283      1286      1282      1280      1283      1284
      1282      1280      1283      1285      1282      1280      1283      1286
      1283      1286      1289      1290      1283      1286      1289      1291
      1283      1286      1289      1295      1284      1283      1286      1287
      1284      1283      1286      1288      1284      1283      1286      1289
      1285      1283      1286      1287      1285      1283      1286      1288
      1285      1283      1286      1289      1286      1289      1291      1292
      1286      1289      1291      1293      1286      1289      1291      1294
      1286      1289      1295      1296      1286      1289      1295      1297
      1286      1289      1295      1298      1287      1286      1289      1290
      1287      1286      1289      1291      1287      1286      1289      1295
      1288      1286      1289      1290      1288      1286      1289      1291
      1288      1286      1289      1295      1290      1289      1291      1292
      1290      1289      1291      1293      1290      1289      1291      1294
      1290      1289      1295      1296      1290      1289      1295      1297
      1290      1289      1295      1298      1291      1289      1295      1296
      1291      1289      1295      1297      1291      1289      1295      1298
      1292      1291      1289      1295      1293      1291      1289      1295
      1294      1291      1289      1295      1299      1303      1306      1307
      1299      1303      1306      1337      1299      1345      1342      1337
      1299      1345      1342      1343      1299      1345      1342      1344
      1300      1299      1301      1302      1300      1299      1303      1304
      1300      1299      1303      1305      1300      1299      1303      1306
      1300      1299      1345      1342      1300      1299      1345      1346
      1300      1299      1345      1347      1301      1299      1303      1304
      1301      1299      1303      1305      1301      1299      1303      1306
      1301      1299      1345      1342      1301      1299      1345      1346
      1301      1299      1345      1347      1302      1301      1299      1303
      1302      1301      1299      1345      1303      1299      1345      1342
      1303      1299      1345      1346      1303      1299      1345      1347
      1303      1306      1307      1308      1303      1306      1307      1309
      1303      1306      1337      1335      1303      1306      1337      1338
      1303      1306      1337      1342      1304      1303      1299      1345
      1304      1303      1306      1307      1304      1303      1306      1337
      1305      1303      1299      1345      1305      1303      1306      1307
      1305      1303      1306      1337      1306      1303      1299      1345
      1306      1307      1309      1310      1306      1307      1309      1311
      1306      1307      1309      1312      1306      1337      1335      1312
      1306      1337      1335      1332      1306      1337      1335      1336
      1306      1337      1338      1339      1306      1337      1338      1340
      1306      1337      1338      1341      1306      1337      1342      1343
      1306      1337      1342      1344      1306      1337      1342      1345
      1307      1306      1337      1335      1307      1306      1337      1338
      1307      1306      1337      1342      1307      1309      1312      1313
      1307      1309      1312      1314      1307      1309      1312      1335
      1308      1307      1306      1337      1308      1307      1309      1310
      1308      1307      1309      1311      1308      1307      1309      1312
      1309      1307      1306      1337      1309      1312      1314      1315
      1309      1312      1314      1316      1309      1312      1314      1324
      1309      1312      1335      1332      1309      1312      1335      1336
      1309      1312      1335      1337      1310      1309      1312      1313
      1310      1309      1312      1314      1310      1309      1312      1335
      1311      1309      1312      1313      1311      1309      1312      1314
      1311      1309      1312      1335      1312      1314      1316      1317
      1312      1314      1316      1318      1312      1314      1316      1319
      1312      1314      1324      1322      1312      1314      1324      1325
      1312      1314      1324      1329      1312      1335      1332      1329
      1312      1335      1332      1333      1312      1335      1332      1334
      1312      1335      1337      1338      1312      1335      1337      1342
      1313      1312      1314      1315      1313      1312      1314      1316
      1313      1312      1314      1324      1313      1312      1335      1332
      1313      1312      1335      1336      1313      1312      1335      1337
      1314      1312      1335      1332      1314      1312      1335      1336
      1314      1312      1335      1337      1314      1316      1319      1320
      1314      1316      1319      1321      1314      1316      1319      1322
      1314      1324      1322      1319      1314      1324      1322      1323
      1314      1324      1322      1348      1314      1324      1325      1326
      1314      1324      1325      1327      1314      1324      1325      1328
      1314      1324      1329      1330      1314      1324      1329      1331
      1314      1324      1329      1332      1315      1314      1312      1335
      1315      1314      1316      1317      1315      1314      1316      1318
      1315      1314      1316      1319      1315      1314      1324      1322
      1315      1314      1324      1325      1315      1314      1324      1329
      1316      1314      1312      1335      1316      1314      1324      1322
      1316      1314      1324      1325      1316      1314      1324      1329
      1316      1319      1322      1323      1316      1319      1322      1324
      1316      1319      1322      1348      1317      1316      1314      1324
      1317      1316      1319      1320      1317      1316      1319      1321
      1317      1316      1319      1322      1318      1316      1314      1324
      1318      1316      1319      1320      1318      1316      1319      1321
      1318      1316      1319      1322      1319      1316      1314      1324
      1319      1322      1324      1325      1319      1322      1324      1329
      1319      1322      1348      1349      1319      1322      1348      1350
      1319      1322      1348      1354      1320      1319      1322      1323
      1320      1319      1322      1324      1320      1319      1322      1348
      1321      1319      1322      1323      1321      1319      1322      1324
      1321      1319      1322      1348      1322      1324      1325      1326
      1322      1324      1325      1327      1322      1324      1325      1328
      1322      1324      1329      1330      1322      1324      1329      1331
      1322      1324      1329      1332      1322      1348      1350      1351
      1322      1348      1350      1352      1322      1348      1350      1353
      1322      1348      1354      1355      1322      1348      1354      1356
      1322      1348      1354      1357      1323      1322      1324      1325
      1323      1322      1324      1329      1323      1322      1348      1349
      1323      1322      1348      1350      1323      1322      1348      1354
      1324      1314      1312      1335      1324      1322      1348      1349
      1324      1322      1348      1350      1324      1322      1348      1354
      1324      1329      1332      1333      1324      1329      1332      1334
      1324      1329      1332      1335      1325      1324      1322      1348
      1325      1324      1329      1330      1325      1324      1329      1331
      1325      1324      1329      1332      1326      1325      1324      1329
      1327      1325      1324      1329      1328      1325      1324      1329
      1329      1324      1322      1348      1329      1332      1335      1336
      1329      1332      1335      1337      1330      1329      1332      1333
      1330      1329      1332      1334      1330      1329      1332      1335
      1331      1329      1332      1333      1331      1329      1332      1334
      1331      1329      1332      1335      1332      1335      1337      1338
      1332      1335      1337      1342      1333      1332      1335      1336
      1333      1332      1335      1337      1334      1332      1335      1336
      1334      1332      1335      1337      1335      1337      1338      1339
      1335      1337      1338      1340      1335      1337      1338      1341
      1335      1337      1342      1343      1335      1337      1342      1344
      1335      1337      1342      1345      1336      1335      1337      1338
      1336      1335      1337      1342      1337      1342      1345      1346
      1337      1342      1345      1347      1338      1337      1342      1343
      1338      1337      1342      1344      1338      1337      1342      1345
      1339      1338      1337      1342      1340      1338      1337      1342
      1341      1338      1337      1342      1343      1342      1345      1346
      1343      1342      1345      1347      1344      1342      1345      1346
      1344      1342      1345      1347      1348      1354      1357      1358
      1348      1354      1357      1359      1348      1354      1357      1360
      1349      1348      1350      1351      1349      1348      1350      1352
      1349      1348      1350      1353      1349      1348      1354      1355
      1349      1348      1354      1356      1349      1348      1354      1357
      1350      1348      1354      1355      1350      1348      1354      1356
      1350      1348      1354      1357      1351      1350      1348      1354
      1352      1350      1348      1354      1353      1350      1348      1354
      1354      1357      1360      1361      1354      1357      1360      1362
      1354      1357      1360      1363      1355      1354      1357      1358
      1355      1354      1357      1359      1355      1354      1357      1360
      1356      1354      1357      1358      1356      1354      1357      1359
      1356      1354      1357      1360      1357      1360      1363      1364
      1357      1360      1363      1365      1357      1360      1363      1369
      1358      1357      1360      1361      1358      1357      1360      1362
      1358      1357      1360      1363      1359      1357      1360      1361
      1359      1357      1360      1362      1359      1357      1360      1363
      1360      1363      1365      1366      1360      1363      1365      1367
      1360      1363      1365      1368      1360      1363      1369      1370
      1360      1363      1369      1371      1360      1363      1369      1372
      1361      1360      1363      1364      1361      1360      1363      1365
      1361      1360      1363      1369      1362      1360      1363      1364
      1362      1360      1363      1365      1362      1360      1363      1369
      1364      1363      1365      1366      1364      1363      1365      1367
      1364      1363      1365      1368      1364      1363      1369      1370
      1364      1363      1369      1371      1364      1363      1369      1372
      1365      1363      1369      1370      1365      1363      1369      1371
      1365      1363      1369      1372      1366      1365      1363      1369
      1367      1365      1363      1369      1368      1365      1363      1369
      1373      1377      1380      1381      1373      1377      1380      1411
      1373      1419      1416      1411      1373      1419      1416      1417
      1373      1419      1416      1418      1374      1373      1375      1376
      1374      1373      1377      1378      1374      1373      1377      1379
      1374      1373      1377      1380      1374      1373      1419      1416
      1374      1373      1419      1420      1374      1373      1419      1421
      1375      1373      1377      1378      1375      1373      1377      1379
      1375      1373      1377      1380      1375      1373      1419      1416
      1375      1373      1419      1420      1375      1373      1419      1421
      1376      1375      1373      1377      1376      1375      1373      1419
      1377      1373      1419      1416      1377      1373      1419      1420
      1377      1373      1419      1421      1377      1380      1381      1382
      1377      1380      1381      1383      1377      1380      1411      1409
      1377      1380      1411      1412      1377      1380      1411      1416
      1378      1377      1373      1419      1378      1377      1380      1381
      1378      1377      1380      1411      1379      1377      1373      1419
      1379      1377      1380      1381      1379      1377      1380      1411
      1380      1377      1373      1419      1380      1381      1383      1384
      1380      1381      1383      1385      1380      1381      1383      1386
      1380      1411      1409      1386      1380      1411      1409      1406
      1380      1411      1409      1410      1380      1411      1412      1413
      1380      1411      1412      1414      1380      1411      1412      1415
      1380      1411      1416      1417      1380      1411      1416      1418
      1380      1411      1416      1419      1381      1380      1411      1409
      1381      1380      1411      1412      1381      1380      1411      1416
      1381      1383      1386      1387      1381      1383      1386      1388
      1381      1383      1386      1409      1382      1381      1380      1411
      1382      1381      1383      1384      1382      1381      1383      1385
      1382      1381      1383      1386      1383      1381      1380      1411
      1383      1386      1388      1389      1383      1386      1388      1390
      1383      1386      1388      1398      1383      1386      1409      1406
      1383      1386      1409      1410      1383      1386      1409      1411
      1384      1383      1386      1387      1384      1383      1386      1388
      1384      1383      1386      1409      1385      1383      1386      1387
      1385      1383      1386      1388      1385      1383      1386      1409
      1386      1388      1390      1391      1386      1388      1390      1392
      1386      1388      1390      1393      1386      1388      1398      1396
      1386      1388      1398      1399      1386      1388      1398      1403
      1386      1409      1406      1403      1386      1409      1406      1407
      1386      1409      1406      1408      1386      1409      1411      1412
      1386      1409      1411      1416      1387      1386      1388      1389
      1387      1386      1388      1390      1387      1386      1388      1398
      1387      1386      1409      1406      1387      1386      1409      1410
      1387      1386      1409      1411      1388      1386      1409      1406
      1388      1386      1409      1410      1388      1386      1409      1411
      1388      1390      1393      1394      1388      1390      1393      1395
      1388      1390      1393      1396      1388      1398      1396      1393
      1388      1398      1396      1397      1388      1398      1396      1422
      1388      1398      1399      1400      1388      1398      1399      1401
      1388      1398      1399      1402      1388      1398      1403      1404
      1388      1398      1403      1405      1388      1398      1403      1406
      1389      1388      1386      1409      1389      1388      1390      1391
      1389      1388      1390      1392      1389      1388      1390      1393
      1389      1388      1398      1396      1389      1388      1398      1399
      1389      1388      1398      1403      1390      1388      1386      1409
      1390      1388      1398      1396      1390      1388      1398      1399
      1390      1388      1398      1403      1390      1393      1396      1397
      1390      1393      1396      1398      1390      1393      1396      1422
      1391      1390      1388      1398      1391      1390      1393      1394
      1391      1390      1393      1395      1391      1390      1393      1396
      1392      1390      1388      1398      1392      1390      1393      1394
      1392      1390      1393      1395      1392      1390      1393      1396
      1393      1390      1388      1398      1393      1396      1398      1399
      1393      1396      1398      1403      1393      1396      1422      1423
      1393      1396      1422      1424      1393      1396      1422      1428
      1394      1393      1396      1397      1394      1393      1396      1398
      1394      1393      1396      1422      1395      1393      1396      1397
      1395      1393      1396      1398      1395      1393      1396      1422
      1396      1398      1399      1400      1396      1398      1399      1401
      1396      1398      1399      1402      1396      1398      1403      1404
      1396      1398      1403      1405      1396      1398      1403      1406
      1396      1422      1424      1425      1396      1422      1424      1426
      1396      1422      1424      1427      1396      1422      1428      1429
      1396      1422      1428      1430      1396      1422      1428      1431
      1397      1396      1398      1399      1397      1396      1398      1403
      1397      1396      1422      1423      1397      1396      1422      1424
      1397      1396      1422      1428      1398      1388      1386      1409
      1398      1396      1422      1423      1398      1396      1422      1424
      1398      1396      1422      1428      1398      1403      1406      1407
      1398      1403      1406      1408      1398      1403      1406      1409
      1399      1398      1396      1422      1399      1398      1403      1404
      1399      1398      1403      1405      1399      1398      1403      1406
      1400      1399      1398      1403      1401      1399      1398      1403
      1402      1399      1398      1403      1403      1398      1396      1422
      1403      1406      1409      1410      1403      1406      1409      1411
      1404      1403      1406      1407      1404      1403      1406      1408
      1404      1403      1406      1409      1405      1403      1406      1407
      1405      1403      1406      1408      1405      1403      1406      1409
      1406      1409      1411      1412      1406      1409      1411      1416
      1407      1406      1409      1410      1407      1406      1409      1411
      1408      1406      1409      1410      1408      1406      1409      1411
      1409      1411      1412      1413      1409      1411      1412      1414
      1409      1411      1412      1415      1409      1411      1416      1417
      1409      1411      1416      1418      1409      1411      1416      1419
      1410      1409      1411      1412      1410      1409      1411      1416
      1411      1416      1419      1420      1411      1416      1419      1421
      1412      1411      1416      1417      1412      1411      1416      1418
      1412      1411      1416      1419      1413      1412      1411      1416
      1414      1412      1411      1416      1415      1412      1411      1416
      1417      1416      1419      1420      1417      1416      1419      1421
      1418      1416      1419      1420      1418      1416      1419      1421
      1422      1428      1431      1432      1422      1428      1431      1433
      1422      1428      1431      1434      1423      1422      1424      1425
      1423      1422      1424      1426      1423      1422      1424      1427
      1423      1422      1428      1429      1423      1422      1428      1430
      1423      1422      1428      1431      1424      1422      1428      1429
      1424      1422      1428      1430      1424      1422      1428      1431
      1425      1424      1422      1428      1426      1424      1422      1428
      1427      1424      1422      1428      1428      1431      1434      1435
      1428      1431      1434      1436      1428      1431      1434      1437
      1429      1428      1431      1432      1429      1428      1431      1433
      1429      1428      1431      1434      1430      1428      1431      1432
      1430      1428      1431      1433      1430      1428      1431      1434
      1431      1434      1437      1438      1431      1434      1437      1439
      1431      1434      1437      1443      1432      1431      1434      1435
      1432      1431      1434      1436      1432      1431      1434      1437
      1433      1431      1434      1435      1433      1431      1434      1436
      1433      1431      1434      1437      1434      1437      1439      1440
      1434      1437      1439      1441      1434      1437      1439      1442
      1434      1437      1443      1444      1434      1437      1443      1445
      1434      1437      1443      1446      1435      1434      1437      1438
      1435      1434      1437      1439      1435      1434      1437      1443
      1436      1434      1437      1438      1436      1434      1437      1439
      1436      1434      1437      1443      1438      1437      1439      1440
      1438      1437      1439      1441      1438      1437      1439      1442
      1438      1437      1443      1444      1438      1437      1443      1445
      1438      1437      1443      1446      1439      1437      1443      1444
      1439      1437      1443      1445      1439      1437      1443      1446
      1440      1439      1437      1443      1441      1439      1437      1443
      1442      1439      1437      1443      1447      1460      1463      1464
      1447      1460      1463      1465      1447      1460      1463      1470
      1448      1447      1452      1453      1448      1447      1452      1454
      1448      1447      1452      1455      1448      1447      1456      1457
      1448      1447      1456      1458      1448      1447      1456      1459
      1448      1447      1460      1461      1448      1447      1460      1462
      1448      1447      1460      1463      1449      1448      1447      1452
      1449      1448      1447      1456      1449      1448      1447      1460
      1450      1448      1447      1452      1450      1448      1447      1456
      1450      1448      1447      1460      1451      1448      1447      1452
      1451      1448      1447      1456      1451      1448      1447      1460
      1452      1447      1456      1457      1452      1447      1456      1458
      1452      1447      1456      1459      1452      1447      1460      1461
      1452      1447      1460      1462      1452      1447      1460      1463
      1453      1452      1447      1456      1453      1452      1447      1460
      1454      1452      1447      1456      1454      1452      1447      1460
      1455      1452      1447      1456      1455      1452      1447      1460
      1456      1447      1460      1461      1456      1447      1460      1462
      1456      1447      1460      1463      1457      1456      1447      1460
      1458      1456      1447      1460      1459      1456      1447      1460
      1460      1463      1470      1466      1461      1460      1463      1464
      1461      1460      1463      1465      1461      1460      1463      1470
      1462      1460      1463      1464      1462      1460      1463      1465
      1462      1460      1463      1470      1463      1470      1466      1467
      1463      1470      1466      1468      1463      1470      1466      1469
      1464      1463      1470      1466      1465      1463      1470      1466
      1466      1469      1471      1472      1466      1469      1471      1473
      1466      1469      1471      1476      1467      1466      1469      1471
      1468      1466      1469      1471      1469      1471      1476      1474
      1469      1471      1476      1477      1469      1471      1476      1478
      1470      1466      1469      1471      1471      1476      1474      1475
      1471      1476      1474      1526      1471      1476      1478      1479
      1471      1476      1478      1480      1471      1476      1478      1482
      1472      1471      1476      1474      1472      1471      1476      1477
      1472      1471      1476      1478      1473      1471      1476      1474
      1473      1471      1476      1477      1473      1471      1476      1478
      1474      1476      1478      1479      1474      1476      1478      1480
      1474      1476      1478      1482      1474      1526      1528      1529
      1474      1526      1528      1530      1474      1526      1528      1531
      1475      1474      1476      1477      1475      1474      1476      1478
      1475      1474      1526      1527      1475      1474      1526      1528
      1476      1474      1526      1527      1476      1474      1526      1528
      1476      1478      1480      1481      1476      1478      1482      1483
      1476      1478      1482      1484      1477      1476      1474      1526
      1477      1476      1478      1479      1477      1476      1478      1480
      1477      1476      1478      1482      1478      1476      1474      1526
      1478      1482      1484      1485      1478      1482      1484      1486
      1479      1478      1480      1481      1479      1478      1482      1483
      1479      1478      1482      1484      1480      1478      1482      1483
      1480      1478      1482      1484      1481      1480      1478      1482
      1482      1484      1486      1487      1482      1484      1486      1488
      1482      1484      1486      1489      1483      1482      1484      1485
      1483      1482      1484      1486      1484      1486      1489      1490
      1484      1486      1489      1491      1484      1486      1489      1492
      1485      1484      1486      1487      1485      1484      1486      1488
      1485      1484      1486      1489      1486      1489      1492      1493
      1486      1489      1492      1494      1486      1489      1492      1495
      1487      1486      1489      1490      1487      1486      1489      1491
      1487      1486      1489      1492      1488      1486      1489      1490
      1488      1486      1489      1491      1488      1486      1489      1492
      1489      1492      1495      1496      1489      1492      1495      1497
      1489      1492      1495      1498      1490      1489      1492      1493
      1490      1489      1492      1494      1490      1489      1492      1495
      1491      1489      1492      1493      1491      1489      1492      1494
      1491      1489      1492      1495      1492      1495      1498      1499
      1492      1495      1498      1500      1492      1495      1498      1501
      1493      1492      1495      1496      1493      1492      1495      1497
      1493      1492      1495      1498      1494      1492      1495      1496
      1494      1492      1495      1497      1494      1492      1495      1498
      1495      1498      1501      1502      1495      1498      1501      1503
      1495      1498      1501      1504      1496      1495      1498      1499
      1496      1495      1498      1500      1496      1495      1498      1501
      1497      1495      1498      1499      1497      1495      1498      1500
      1497      1495      1498      1501      1498      1501      1504      1505
      1498      1501      1504      1506      1498      1501      1504      1507
      1499      1498      1501      1502      1499      1498      1501      1503
      1499      1498      1501      1504      1500      1498      1501      1502
      1500      1498      1501      1503      1500      1498      1501      1504
      1501      1504      1507      1508      1501      1504      1507      1509
      1501      1504      1507      1510      1502      1501      1504      1505
      1502      1501      1504      1506      1502      1501      1504      1507
      1503      1501      1504      1505      1503      1501      1504      1506
      1503      1501      1504      1507      1504      1507      1510      1511
      1504      1507      1510      1512      1504      1507      1510      1513
      1505      1504      1507      1508      1505      1504      1507      1509
      1505      1504      1507      1510      1506      1504      1507      1508
      1506      1504      1507      1509      1506      1504      1507      1510
      1507      1510      1513      1514      1507      1510      1513      1515
      1507      1510      1513      1516      1508      1507      1510      1511
      1508      1507      1510      1512      1508      1507      1510      1513
      1509      1507      1510      1511      1509      1507      1510      1512
      1509      1507      1510      1513      1510      1513      1516      1517
      1510      1513      1516      1518      1510      1513      1516      1519
      1511      1510      1513      1514      1511      1510      1513      1515
      1511      1510      1513      1516      1512      1510      1513      1514
      1512      1510      1513      1515      1512      1510      1513      1516
      1513      1516      1519      1520      1513      1516      1519      1521
      1513      1516      1519      1522      1514      1513      1516      1517
      1514      1513      1516      1518      1514      1513      1516      1519
      1515      1513      1516      1517      1515      1513      1516      1518
      1515      1513      1516      1519      1516      1519      1522      1523
      1516      1519      1522      1524      1516      1519      1522      1525
      1517      1516      1519      1520      1517      1516      1519      1521
      1517      1516      1519      1522      1518      1516      1519      1520
      1518      1516      1519      1521      1518      1516      1519      1522
      1520      1519      1522      1523      1520      1519      1522      1524
      1520      1519      1522      1525      1521      1519      1522      1523
      1521      1519      1522      1524      1521      1519      1522      1525
      1526      1528      1531      1532      1526      1528      1531      1533
      1526      1528      1531      1534      1527      1526      1528      1529
      1527      1526      1528      1530      1527      1526      1528      1531
      1528      1531      1534      1535      1528      1531      1534      1536
      1528      1531      1534      1537      1529      1528      1531      1532
      1529      1528      1531      1533      1529      1528      1531      1534
      1530      1528      1531      1532      1530      1528      1531      1533
      1530      1528      1531      1534      1531      1534      1537      1538
      1531      1534      1537      1539      1531      1534      1537      1540
      1532      1531      1534      1535      1532      1531      1534      1536
      1532      1531      1534      1537      1533      1531      1534      1535
      1533      1531      1534      1536      1533      1531      1534      1537
      1534      1537      1540      1541      1534      1537      1540      1542
      1534      1537      1540      1543      1535      1534      1537      1538
      1535      1534      1537      1539      1535      1534      1537      1540
      1536      1534      1537      1538      1536      1534      1537      1539
      1536      1534      1537      1540      1537      1540      1543      1544
      1537      1540      1543      1545      1537      1540      1543      1546
      1538      1537      1540      1541      1538      1537      1540      1542
      1538      1537      1540      1543      1539      1537      1540      1541
      1539      1537      1540      1542      1539      1537      1540      1543
      1540      1543      1546      1547      1540      1543      1546      1548
      1540      1543      1546      1549      1541      1540      1543      1544
      1541      1540      1543      1545      1541      1540      1543      1546
      1542      1540      1543      1544      1542      1540      1543      1545
      1542      1540      1543      1546      1543      1546      1549      1550
      1543      1546      1549      1551      1544      1543      1546      1547
      1544      1543      1546      1548      1544      1543      1546      1549
      1545      1543      1546      1547      1545      1543      1546      1548
      1545      1543      1546      1549      1546      1549      1551      1552
      1546      1549      1551      1553      1547      1546      1549      1550
      1547      1546      1549      1551      1548      1546      1549      1550
      1548      1546      1549      1551      1549      1551      1553      1554
      1549      1551      1553      1555      1549      1551      1553      1556
      1550      1549      1551      1552      1550      1549      1551      1553
      1551      1553      1556      1557      1551      1553      1556      1558
      1551      1553      1556      1559      1552      1551      1553      1554
      1552      1551      1553      1555      1552      1551      1553      1556
      1553      1556      1559      1560      1553      1556      1559      1561
      1553      1556      1559      1562      1554      1553      1556      1557
      1554      1553      1556      1558      1554      1553      1556      1559
      1555      1553      1556      1557      1555      1553      1556      1558
      1555      1553      1556      1559      1556      1559      1562      1563
      1556      1559      1562      1564      1556      1559      1562      1565
      1557      1556      1559      1560      1557      1556      1559      1561
      1557      1556      1559      1562      1558      1556      1559      1560
      1558      1556      1559      1561      1558      1556      1559      1562
      1559      1562      1565      1566      1559      1562      1565      1567
      1559      1562      1565      1568      1560      1559      1562      1563
      1560      1559      1562      1564      1560      1559      1562      1565
      1561      1559      1562      1563      1561      1559      1562      1564
      1561      1559      1562      1565      1562      1565      1568      1569
      1562      1565      1568      1570      1562      1565      1568      1571
      1563      1562      1565      1566      1563      1562      1565      1567
      1563      1562      1565      1568      1564      1562      1565      1566
      1564      1562      1565      1567      1564      1562      1565      1568
      1565      1568      1571      1572      1565      1568      1571      1573
      1565      1568      1571      1574      1566      1565      1568      1569
      1566      1565      1568      1570      1566      1565      1568      1571
      1567      1565      1568      1569      1567      1565      1568      1570
      1567      1565      1568      1571      1568      1571      1574      1575
      1568      1571      1574      1576      1568      1571      1574      1577
      1569      1568      1571      1572      1569      1568      1571      1573
      1569      1568      1571      1574      1570      1568      1571      1572
      1570      1568      1571      1573      1570      1568      1571      1574
      1572      1571      1574      1575      1572      1571      1574      1576
      1572      1571      1574      1577      1573      1571      1574      1575
      1573      1571      1574      1576      1573      1571      1574      1577
      1578      1582      1585      1586      1578      1582      1585      1616
      1578      1624      1621      1616      1578      1624      1621      1622
      1578      1624      1621      1623      1579      1578      1580      1581
      1579      1578      1582      1583      1579      1578      1582      1584
      1579      1578      1582      1585      1579      1578      1624      1621
      1579      1578      1624      1625      1579      1578      1624      1626
      1580      1578      1582      1583      1580      1578      1582      1584
      1580      1578      1582      1585      1580      1578      1624      1621
      1580      1578      1624      1625      1580      1578      1624      1626
      1581      1580      1578      1582      1581      1580      1578      1624
      1582      1578      1624      1621      1582      1578      1624      1625
      1582      1578      1624      1626      1582      1585      1586      1587
      1582      1585      1586      1588      1582      1585      1616      1614
      1582      1585      1616      1617      1582      1585      1616      1621
      1583      1582      1578      1624      1583      1582      1585      1586
      1583      1582      1585      1616      1584      1582      1578      1624
      1584      1582      1585      1586      1584      1582      1585      1616
      1585      1582      1578      1624      1585      1586      1588      1589
      1585      1586      1588      1590      1585      1586      1588      1591
      1585      1616      1614      1591      1585      1616      1614      1611
      1585      1616      1614      1615      1585      1616      1617      1618
      1585      1616      1617      1619      1585      1616      1617      1620
      1585      1616      1621      1622      1585      1616      1621      1623
      1585      1616      1621      1624      1586      1585      1616      1614
      1586      1585      1616      1617      1586      1585      1616      1621
      1586      1588      1591      1592      1586      1588      1591      1593
      1586      1588      1591      1614      1587      1586      1585      1616
      1587      1586      1588      1589      1587      1586      1588      1590
      1587      1586      1588      1591      1588      1586      1585      1616
      1588      1591      1593      1594      1588      1591      1593      1595
      1588      1591      1593      1603      1588      1591      1614      1611
      1588      1591      1614      1615      1588      1591      1614      1616
      1589      1588      1591      1592      1589      1588      1591      1593
      1589      1588      1591      1614      1590      1588      1591      1592
      1590      1588      1591      1593      1590      1588      1591      1614
      1591      1593      1595      1596      1591      1593      1595      1597
      1591      1593      1595      1598      1591      1593      1603      1601
      1591      1593      1603      1604      1591      1593      1603      1608
      1591      1614      1611      1608      1591      1614      1611      1612
      1591      1614      1611      1613      1591      1614      1616      1617
      1591      1614      1616      1621      1592      1591      1593      1594
      1592      1591      1593      1595      1592      1591      1593      1603
      1592      1591      1614      1611      1592      1591      1614      1615
      1592      1591      1614      1616      1593      1591      1614      1611
      1593      1591      1614      1615      1593      1591      1614      1616
      1593      1595      1598      1599      1593      1595      1598      1600
      1593      1595      1598      1601      1593      1603      1601      1598
      1593      1603      1601      1602      1593      1603      1601      1627
      1593      1603      1604      1605      1593      1603      1604      1606
      1593      1603      1604      1607      1593      1603      1608      1609
      1593      1603      1608      1610      1593      1603      1608      1611
      1594      1593      1591      1614      1594      1593      1595      1596
      1594      1593      1595      1597      1594      1593      1595      1598
      1594      1593      1603      1601      1594      1593      1603      1604
      1594      1593      1603      1608      1595      1593      1591      1614
      1595      1593      1603      1601      1595      1593      1603      1604
      1595      1593      1603      1608      1595      1598      1601      1602
      1595      1598      1601      1603      1595      1598      1601      1627
      1596      1595      1593      1603      1596      1595      1598      1599
      1596      1595      1598      1600      1596      1595      1598      1601
      1597      1595      1593      1603      1597      1595      1598      1599
      1597      1595      1598      1600      1597      1595      1598      1601
      1598      1595      1593      1603      1598      1601      1603      1604
      1598      1601      1603      1608      1598      1601      1627      1628
      1598      1601      1627      1629      1598      1601      1627      1633
      1599      1598      1601      1602      1599      1598      1601      1603
      1599      1598      1601      1627      1600      1598      1601      1602
      1600      1598      1601      1603      1600      1598      1601      1627
      1601      1603      1604      1605      1601      1603      1604      1606
      1601      1603      1604      1607      1601      1603      1608      1609
      1601      1603      1608      1610      1601      1603      1608      1611
      1601      1627      1629      1630      1601      1627      1629      1631
      1601      1627      1629      1632      1601      1627      1633      1634
      1601      1627      1633      1635      1601      1627      1633      1636
      1602      1601      1603      1604      1602      1601      1603      1608
      1602      1601      1627      1628      1602      1601      1627      1629
      1602      1601      1627      1633      1603      1593      1591      1614
      1603      1601      1627      1628      1603      1601      1627      1629
      1603      1601      1627      1633      1603      1608      1611      1612
      1603      1608      1611      1613      1603      1608      1611      1614
      1604      1603      1601      1627      1604      1603      1608      1609
      1604      1603      1608      1610      1604      1603      1608      1611
      1605      1604      1603      1608      1606      1604      1603      1608
      1607      1604      1603      1608      1608      1603      1601      1627
      1608      1611      1614      1615      1608      1611      1614      1616
      1609      1608      1611      1612      1609      1608      1611      1613
      1609      1608      1611      1614      1610      1608      1611      1612
      1610      1608      1611      1613      1610      1608      1611      1614
      1611      1614      1616      1617      1611      1614      1616      1621
      1612      1611      1614      1615      1612      1611      1614      1616
      1613      1611      1614      1615      1613      1611      1614      1616
      1614      1616      1617      1618      1614      1616      1617      1619
      1614      1616      1617      1620      1614      1616      1621      1622
      1614      1616      1621      1623      1614      1616      1621      1624
      1615      1614      1616      1617      1615      1614      1616      1621
      1616      1621      1624      1625      1616      1621      1624      1626
      1617      1616      1621      1622      1617      1616      1621      1623
      1617      1616      1621      1624      1618      1617      1616      1621
      1619      1617      1616      1621      1620      1617      1616      1621
      1622      1621      1624      1625      1622      1621      1624      1626
      1623      1621      1624      1625      1623      1621      1624      1626
      1627      1633      1636      1637      1627      1633      1636      1638
      1627      1633      1636      1639      1628      1627      1629      1630
      1628      1627      1629      1631      1628      1627      1629      1632
      1628      1627      1633      1634      1628      1627      1633      1635
      1628      1627      1633      1636      1629      1627      1633      1634
      1629      1627      1633      1635      1629      1627      1633      1636
      1630      1629      1627      1633      1631      1629      1627      1633
      1632      1629      1627      1633      1633      1636      1639      1640
      1633      1636      1639      1641      1633      1636      1639      1642
      1634      1633      1636      1637      1634      1633      1636      1638
      1634      1633      1636      1639      1635      1633      1636      1637
      1635      1633      1636      1638      1635      1633      1636      1639
      1636      1639      1642      1643      1636      1639      1642      1644
      1636      1639      1642      1648      1637      1636      1639      1640
      1637      1636      1639      1641      1637      1636      1639      1642
      1638      1636      1639      1640      1638      1636      1639      1641
      1638      1636      1639      1642      1639      1642      1644      1645
      1639      1642      1644      1646      1639      1642      1644      1647
      1639      1642      1648      1649      1639      1642      1648      1650
      1639      1642      1648      1651      1640      1639      1642      1643
      1640      1639      1642      1644      1640      1639      1642      1648
      1641      1639      1642      1643      1641      1639      1642      1644
      1641      1639      1642      1648      1643      1642      1644      1645
      1643      1642      1644      1646      1643      1642      1644      1647
      1643      1642      1648      1649      1643      1642      1648      1650
      1643      1642      1648      1651      1644      1642      1648      1649
      1644      1642      1648      1650      1644      1642      1648      1651
      1645      1644      1642      1648      1646      1644      1642      1648
      1647      1644      1642      1648      1652      1665      1668      1669
      1652      1665      1668      1670      1652      1665      1668      1675
      1653      1652      1657      1658      1653      1652      1657      1659
      1653      1652      1657      1660      1653      1652      1661      1662
      1653      1652      1661      1663      1653      1652      1661      1664
      1653      1652      1665      1666      1653      1652      1665      1667
      1653      1652      1665      1668      1654      1653      1652      1657
      1654      1653      1652      1661      1654      1653      1652      1665
      1655      1653      1652      1657      1655      1653      1652      1661
      1655      1653      1652      1665      1656      1653      1652      1657
      1656      1653      1652      1661      1656      1653      1652      1665
      1657      1652      1661      1662      1657      1652      1661      1663
      1657      1652      1661      1664      1657      1652      1665      1666
      1657      1652      1665      1667      1657      1652      1665      1668
      1658      1657      1652      1661      1658      1657      1652      1665
      1659      1657      1652      1661      1659      1657      1652      1665
      1660      1657      1652      1661      1660      1657      1652      1665
      1661      1652      1665      1666      1661      1652      1665      1667
      1661      1652      1665      1668      1662      1661      1652      1665
      1663      1661      1652      1665      1664      1661      1652      1665
      1665      1668      1675      1671      1666      1665      1668      1669
      1666      1665      1668      1670      1666      1665      1668      1675
      1667      1665      1668      1669      1667      1665      1668      1670
      1667      1665      1668      1675      1668      1675      1671      1672
      1668      1675      1671      1673      1668      1675      1671      1674
      1669      1668      1675      1671      1670      1668      1675      1671
      1671      1674      1676      1677      1671      1674      1676      1678
      1671      1674      1676      1681      1672      1671      1674      1676
      1673      1671      1674      1676      1674      1676      1681      1679
      1674      1676      1681      1682      1674      1676      1681      1683
      1675      1671      1674      1676      1676      1681      1679      1680
      1676      1681      1679      1731      1676      1681      1683      1684
      1676      1681      1683      1685      1676      1681      1683      1687
      1677      1676      1681      1679      1677      1676      1681      1682
      1677      1676      1681      1683      1678      1676      1681      1679
      1678      1676      1681      1682      1678      1676      1681      1683
      1679      1681      1683      1684      1679      1681      1683      1685
      1679      1681      1683      1687      1679      1731      1733      1734
      1679      1731      1733      1735      1679      1731      1733      1736
      1680      1679      1681      1682      1680      1679      1681      1683
      1680      1679      1731      1732      1680      1679      1731      1733
      1681      1679      1731      1732      1681      1679      1731      1733
      1681      1683      1685      1686      1681      1683      1687      1688
      1681      1683      1687      1689      1682      1681      1679      1731
      1682      1681      1683      1684      1682      1681      1683      1685
      1682      1681      1683      1687      1683      1681      1679      1731
      1683      1687      1689      1690      1683      1687      1689      1691
      1684      1683      1685      1686      1684      1683      1687      1688
      1684      1683      1687      1689      1685      1683      1687      1688
      1685      1683      1687      1689      1686      1685      1683      1687
      1687      1689      1691      1692      1687      1689      1691      1693
      1687      1689      1691      1694      1688      1687      1689      1690
      1688      1687      1689      1691      1689      1691      1694      1695
      1689      1691      1694      1696      1689      1691      1694      1697
      1690      1689      1691      1692      1690      1689      1691      1693
      1690      1689      1691      1694      1691      1694      1697      1698
      1691      1694      1697      1699      1691      1694      1697      1700
      1692      1691      1694      1695      1692      1691      1694      1696
      1692      1691      1694      1697      1693      1691      1694      1695
      1693      1691      1694      1696      1693      1691      1694      1697
      1694      1697      1700      1701      1694      1697      1700      1702
      1694      1697      1700      1703      1695      1694      1697      1698
      1695      1694      1697      1699      1695      1694      1697      1700
      1696      1694      1697      1698      1696      1694      1697      1699
      1696      1694      1697      1700      1697      1700      1703      1704
      1697      1700      1703      1705      1697      1700      1703      1706
      1698      1697      1700      1701      1698      1697      1700      1702
      1698      1697      1700      1703      1699      1697      1700      1701
      1699      1697      1700      1702      1699      1697      1700      1703
      1700      1703      1706      1707      1700      1703      1706      1708
      1700      1703      1706      1709      1701      1700      1703      1704
      1701      1700      1703      1705      1701      1700      1703      1706
      1702      1700      1703      1704      1702      1700      1703      1705
      1702      1700      1703      1706      1703      1706      1709      1710
      1703      1706      1709      1711      1703      1706      1709      1712
      1704      1703      1706      1707      1704      1703      1706      1708
      1704      1703      1706      1709      1705      1703      1706      1707
      1705      1703      1706      1708      1705      1703      1706      1709
      1706      1709      1712      1713      1706      1709      1712      1714
      1706      1709      1712      1715      1707      1706      1709      1710
      1707      1706      1709      1711      1707      1706      1709      1712
      1708      1706      1709      1710      1708      1706      1709      1711
      1708      1706      1709      1712      1709      1712      1715      1716
      1709      1712      1715      1717      1709      1712      1715      1718
      1710      1709      1712      1713      1710      1709      1712      1714
      1710      1709      1712      1715      1711      1709      1712      1713
      1711      1709      1712      1714      1711      1709      1712      1715
      1712      1715      1718      1719      1712      1715      1718      1720
      1712      1715      1718      1721      1713      1712      1715      1716
      1713      1712      1715      1717      1713      1712      1715      1718
      1714      1712      1715      1716      1714      1712      1715      1717
      1714      1712      1715      1718      1715      1718      1721      1722
      1715      1718      1721      1723      1715      1718      1721      1724
      1716      1715      1718      1719      1716      1715      1718      1720
      1716      1715      1718      1721      1717      1715      1718      1719
      1717      1715      1718      1720      1717      1715      1718      1721
      1718      1721      1724      1725      1718      1721      1724      1726
      1718      1721      1724      1727      1719      1718      1721      1722
      1719      1718      1721      1723      1719      1718      1721      1724
      1720      1718      1721      1722      1720      1718      1721      1723
      1720      1718      1721      1724      1721      1724      1727      1728
      1721      1724      1727      1729      1721      1724      1727      1730
      1722      1721      1724      1725      1722      1721      1724      1726
      1722      1721      1724      1727      1723      1721      1724      1725
      1723      1721      1724      1726      1723      1721      1724      1727
      1725      1724      1727      1728      1725      1724      1727      1729
      1725      1724      1727      1730      1726      1724      1727      1728
      1726      1724      1727      1729      1726      1724      1727      1730
      1731      1733      1736      1737      1731      1733      1736      1738
      1731      1733      1736      1739      1732      1731      1733      1734
      1732      1731      1733      1735      1732      1731      1733      1736
      1733      1736      1739      1740      1733      1736      1739      1741
      1733      1736      1739      1742      1734      1733      1736      1737
      1734      1733      1736      1738      1734      1733      1736      1739
      1735      1733      1736      1737      1735      1733      1736      1738
      1735      1733      1736      1739      1736      1739      1742      1743
      1736      1739      1742      1744      1736      1739      1742      1745
      1737      1736      1739      1740      1737      1736      1739      1741
      1737      1736      1739      1742      1738      1736      1739      1740
      1738      1736      1739      1741      1738      1736      1739      1742
      1739      1742      1745      1746      1739      1742      1745      1747
      1739      1742      1745      1748      1740      1739      1742      1743
      1740      1739      1742      1744      1740      1739      1742      1745
      1741      1739      1742      1743      1741      1739      1742      1744
      1741      1739      1742      1745      1742      1745      1748      1749
      1742      1745      1748      1750      1742      1745      1748      1751
      1743      1742      1745      1746      1743      1742      1745      1747
      1743      1742      1745      1748      1744      1742      1745      1746
      1744      1742      1745      1747      1744      1742      1745      1748
      1745      1748      1751      1752      1745      1748      1751      1753
      1745      1748      1751      1754      1746      1745      1748      1749
      1746      1745      1748      1750      1746      1745      1748      1751
      1747      1745      1748      1749      1747      1745      1748      1750
      1747      1745      1748      1751      1748      1751      1754      1755
      1748      1751      1754      1756      1749      1748      1751      1752
      1749      1748      1751      1753      1749      1748      1751      1754
      1750      1748      1751      1752      1750      1748      1751      1753
      1750      1748      1751      1754      1751      1754      1756      1757
      1751      1754      1756      1758      1752      1751      1754      1755
      1752      1751      1754      1756      1753      1751      1754      1755
      1753      1751      1754      1756      1754      1756      1758      1759
      1754      1756      1758      1760      1754      1756      1758      1761
      1755      1754      1756      1757      1755      1754      1756      1758
      1756      1758      1761      1762      1756      1758      1761      1763
      1756      1758      1761      1764      1757      1756      1758      1759
      1757      1756      1758      1760      1757      1756      1758      1761
      1758      1761      1764      1765      1758      1761      1764      1766
      1758      1761      1764      1767      1759      1758      1761      1762
      1759      1758      1761      1763      1759      1758      1761      1764
      1760      1758      1761      1762      1760      1758      1761      1763
      1760      1758      1761      1764      1761      1764      1767      1768
      1761      1764      1767      1769      1761      1764      1767      1770
      1762      1761      1764      1765      1762      1761      1764      1766
      1762      1761      1764      1767      1763      1761      1764      1765
      1763      1761      1764      1766      1763      1761      1764      1767
      1764      1767      1770      1771      1764      1767      1770      1772
      1764      1767      1770      1773      1765      1764      1767      1768
      1765      1764      1767      1769      1765      1764      1767      1770
      1766      1764      1767      1768      1766      1764      1767      1769
      1766      1764      1767      1770      1767      1770      1773      1774
      1767      1770      1773      1775      1767      1770      1773      1776
      1768      1767      1770      1771      1768      1767      1770      1772
      1768      1767      1770      1773      1769      1767      1770      1771
      1769      1767      1770      1772      1769      1767      1770      1773
      1770      1773      1776      1777      1770      1773      1776      1778
      1770      1773      1776      1779      1771      1770      1773      1774
      1771      1770      1773      1775      1771      1770      1773      1776
      1772      1770      1773      1774      1772      1770      1773      1775
      1772      1770      1773      1776      1773      1776      1779      1780
      1773      1776      1779      1781      1773      1776      1779      1782
      1774      1773      1776      1777      1774      1773      1776      1778
      1774      1773      1776      1779      1775      1773      1776      1777
      1775      1773      1776      1778      1775      1773      1776      1779
      1777      1776      1779      1780      1777      1776      1779      1781
      1777      1776      1779      1782      1778      1776      1779      1780
      1778      1776      1779      1781      1778      1776      1779      1782
      1783      1787      1790      1791      1783      1787      1790      1792
      1783      1787      1790      1796      1784      1783      1787      1788
      1784      1783      1787      1789      1784      1783      1787      1790
      1785      1783      1787      1788      1785      1783      1787      1789
      1785      1783      1787      1790      1786      1783      1787      1788
      1786      1783      1787      1789      1786      1783      1787      1790
      1787      1790      1796      1793      1788      1787      1790      1791
      1788      1787      1790      1792      1788      1787      1790      1796
      1789      1787      1790      1791      1789      1787      1790      1792
      1789      1787      1790      1796      1790      1796      1793      1794
      1790      1796      1793      1795      1790      1796      1793      1797
      1791      1790      1796      1793      1792      1790      1796      1793
      1793      1797      1798      1799      1793      1797      1798      1800
      1793      1797      1798      1801      1794      1793      1797      1798
      1795      1793      1797      1798      1796      1793      1797      1798
      1797      1798      1801      1802      1797      1798      1801      1803
      1797      1798      1801      1809      1798      1801      1803      1804
      1798      1801      1809      1810      1798      1801      1809      1811
      1798      1801      1809      1812      1799      1798      1801      1802
      1799      1798      1801      1803      1799      1798      1801      1809
      1800      1798      1801      1802      1800      1798      1801      1803
      1800      1798      1801      1809      1801      1803      1804      1805
      1801      1803      1804      1806      1801      1809      1812      1813
      1802      1801      1803      1804      1802      1801      1809      1810
      1802      1801      1809      1811      1802      1801      1809      1812
      1803      1801      1809      1810      1803      1801      1809      1811
      1803      1801      1809      1812      1803      1804      1806      1807
      1803      1804      1806      1808      1803      1804      1806      1818
      1804      1803      1801      1809      1804      1806      1818      1819
      1804      1806      1818      1820      1804      1806      1818      1821
      1805      1804      1806      1807      1805      1804      1806      1808
      1805      1804      1806      1818      1806      1818      1821      1822
      1806      1818      1821      1823      1806      1818      1821      1824
      1807      1806      1818      1819      1807      1806      1818      1820
      1807      1806      1818      1821      1808      1806      1818      1819
      1808      1806      1818      1820      1808      1806      1818      1821
      1809      1812      1813      1814      1809      1812      1813      1815
      1810      1809      1812      1813      1811      1809      1812      1813
      1812      1813      1815      1816      1812      1813      1815      1817
      1812      1813      1815      1865      1813      1815      1865      1866
      1813      1815      1865      1867      1813      1815      1865      1868
      1814      1813      1815      1816      1814      1813      1815      1817
      1814      1813      1815      1865      1815      1865      1868      1869
      1815      1865      1868      1870      1815      1865      1868      1871
      1816      1815      1865      1866      1816      1815      1865      1867
      1816      1815      1865      1868      1817      1815      1865      1866
      1817      1815      1865      1867      1817      1815      1865      1868
      1818      1821      1824      1825      1818      1821      1824      1826
      1818      1821      1824      1827      1819      1818      1821      1822
      1819      1818      1821      1823      1819      1818      1821      1824
      1820      1818      1821      1822      1820      1818      1821      1823
      1820      1818      1821      1824      1821      1824      1827      1828
      1821      1824      1827      1829      1821      1824      1827      1830
      1822      1821      1824      1825      1822      1821      1824      1826
      1822      1821      1824      1827      1823      1821      1824      1825
      1823      1821      1824      1826      1823      1821      1824      1827
      1824      1827      1830      1831      1824      1827      1830      1832
      1824      1827      1830      1833      1825      1824      1827      1828
      1825      1824      1827      1829      1825      1824      1827      1830
      1826      1824      1827      1828      1826      1824      1827      1829
      1826      1824      1827      1830      1827      1830      1833      1834
      1827      1830      1833      1835      1827      1830      1833      1836
      1828      1827      1830      1831      1828      1827      1830      1832
      1828      1827      1830      1833      1829      1827      1830      1831
      1829      1827      1830      1832      1829      1827      1830      1833
      1830      1833      1836      1837      1830      1833      1836      1838
      1831      1830      1833      1834      1831      1830      1833      1835
      1831      1830      1833      1836      1832      1830      1833      1834
      1832      1830      1833      1835      1832      1830      1833      1836
      1833      1836      1838      1839      1833      1836      1838      1840
      1834      1833      1836      1837      1834      1833      1836      1838
      1835      1833      1836      1837      1835      1833      1836      1838
      1836      1838      1840      1841      1836      1838      1840      1842
      1836      1838      1840      1843      1837      1836      1838      1839
      1837      1836      1838      1840      1838      1840      1843      1844
      1838      1840      1843      1845      1838      1840      1843      1846
      1839      1838      1840      1841      1839      1838      1840      1842
      1839      1838      1840      1843      1840      1843      1846      1847
      1840      1843      1846      1848      1840      1843      1846      1849
      1841      1840      1843      1844      1841      1840      1843      1845
      1841      1840      1843      1846      1842      1840      1843      1844
      1842      1840      1843      1845      1842      1840      1843      1846
      1843      1846      1849      1850      1843      1846      1849      1851
      1843      1846      1849      1852      1844      1843      1846      1847
      1844      1843      1846      1848      1844      1843      1846      1849
      1845      1843      1846      1847      1845      1843      1846      1848
      1845      1843      1846      1849      1846      1849      1852      1853
      1846      1849      1852      1854      1846      1849      1852      1855
      1847      1846      1849      1850      1847      1846      1849      1851
      1847      1846      1849      1852      1848      1846      1849      1850
      1848      1846      1849      1851      1848      1846      1849      1852
      1849      1852      1855      1856      1849      1852      1855      1857
      1849      1852      1855      1858      1850      1849      1852      1853
      1850      1849      1852      1854      1850      1849      1852      1855
      1851      1849      1852      1853      1851      1849      1852      1854
      1851      1849      1852      1855      1852      1855      1858      1859
      1852      1855      1858      1860      1852      1855      1858      1861
      1853      1852      1855      1856      1853      1852      1855      1857
      1853      1852      1855      1858      1854      1852      1855      1856
      1854      1852      1855      1857      1854      1852      1855      1858
      1855      1858      1861      1862      1855      1858      1861      1863
      1855      1858      1861      1864      1856      1855      1858      1859
      1856      1855      1858      1860      1856      1855      1858      1861
      1857      1855      1858      1859      1857      1855      1858      1860
      1857      1855      1858      1861      1859      1858      1861      1862
      1859      1858      1861      1863      1859      1858      1861      1864
      1860      1858      1861      1862      1860      1858      1861      1863
      1860      1858      1861      1864      1865      1868      1871      1872
      1865      1868      1871      1873      1865      1868      1871      1874
      1866      1865      1868      1869      1866      1865      1868      1870
      1866      1865      1868      1871      1867      1865      1868      1869
      1867      1865      1868      1870      1867      1865      1868      1871
      1868      1871      1874      1875      1868      1871      1874      1876
      1868      1871      1874      1877      1869      1868      1871      1872
      1869      1868      1871      1873      1869      1868      1871      1874
      1870      1868      1871      1872      1870      1868      1871      1873
      1870      1868      1871      1874      1871      1874      1877      1878
      1871      1874      1877      1879      1871      1874      1877      1880
      1872      1871      1874      1875      1872      1871      1874      1876
      1872      1871      1874      1877      1873      1871      1874      1875
      1873      1871      1874      1876      1873      1871      1874      1877
      1874      1877      1880      1881      1874      1877      1880      1882
      1874      1877      1880      1883      1875      1874      1877      1878
      1875      1874      1877      1879      1875      1874      1877      1880
      1876      1874      1877      1878      1876      1874      1877      1879
      1876      1874      1877      1880      1877      1880      1883      1884
      1877      1880      1883      1885      1877      1880      1883      1886
      1878      1877      1880      1881      1878      1877      1880      1882
      1878      1877      1880      1883      1879      1877      1880      1881
      1879      1877      1880      1882      1879      1877      1880      1883
      1880      1883      1886      1887      1880      1883      1886      1888
      1880      1883      1886      1889      1881      1880      1883      1884
      1881      1880      1883      1885      1881      1880      1883      1886
      1882      1880      1883      1884      1882      1880      1883      1885
      1882      1880      1883      1886      1883      1886      1889      1890
      1883      1886      1889      1891      1883      1886      1889      1892
      1884      1883      1886      1887      1884      1883      1886      1888
      1884      1883      1886      1889      1885      1883      1886      1887
      1885      1883      1886      1888      1885      1883      1886      1889
      1886      1889      1892      1893      1886      1889      1892      1894
      1886      1889      1892      1895      1887      1886      1889      1890
      1887      1886      1889      1891      1887      1886      1889      1892
      1888      1886      1889      1890      1888      1886      1889      1891
      1888      1886      1889      1892      1889      1892      1895      1896
      1889      1892      1895      1897      1889      1892      1895      1898
      1890      1889      1892      1893      1890      1889      1892      1894
      1890      1889      1892      1895      1891      1889      1892      1893
      1891      1889      1892      1894      1891      1889      1892      1895
      1892      1895      1898      1899      1892      1895      1898      1900
      1892      1895      1898      1901      1893      1892      1895      1896
      1893      1892      1895      1897      1893      1892      1895      1898
      1894      1892      1895      1896      1894      1892      1895      1897
      1894      1892      1895      1898      1895      1898      1901      1902
      1895      1898      1901      1903      1895      1898      1901      1904
      1896      1895      1898      1899      1896      1895      1898      1900
      1896      1895      1898      1901      1897      1895      1898      1899
      1897      1895      1898      1900      1897      1895      1898      1901
      1898      1901      1904      1905      1898      1901      1904      1906
      1898      1901      1904      1907      1899      1898      1901      1902
      1899      1898      1901      1903      1899      1898      1901      1904
      1900      1898      1901      1902      1900      1898      1901      1903
      1900      1898      1901      1904      1901      1904      1907      1908
      1901      1904      1907      1909      1901      1904      1907      1910
      1902      1901      1904      1905      1902      1901      1904      1906
      1902      1901      1904      1907      1903      1901      1904      1905
      1903      1901      1904      1906      1903      1901      1904      1907
      1904      1907      1910      1911      1904      1907      1910      1912
      1904      1907      1910      1913      1905      1904      1907      1908
      1905      1904      1907      1909      1905      1904      1907      1910
      1906      1904      1907      1908      1906      1904      1907      1909
      1906      1904      1907      1910      1908      1907      1910      1911
      1908      1907      1910      1912      1908      1907      1910      1913
      1909      1907      1910      1911      1909      1907      1910      1912
      1909      1907      1910      1913      1914      1918      1921      1922
      1914      1918      1921      1952      1914      1960      1957      1952
      1914      1960      1957      1958      1914      1960      1957      1959
      1915      1914      1916      1917      1915      1914      1918      1919
      1915      1914      1918      1920      1915      1914      1918      1921
      1915      1914      1960      1957      1915      1914      1960      1961
      1915      1914      1960      1962      1916      1914      1918      1919
      1916      1914      1918      1920      1916      1914      1918      1921
      1916      1914      1960      1957      1916      1914      1960      1961
      1916      1914      1960      1962      1917      1916      1914      1918
      1917      1916      1914      1960      1918      1914      1960      1957
      1918      1914      1960      1961      1918      1914      1960      1962
      1918      1921      1922      1923      1918      1921      1922      1924
      1918      1921      1952      1950      1918      1921      1952      1953
      1918      1921      1952      1957      1919      1918      1914      1960
      1919      1918      1921      1922      1919      1918      1921      1952
      1920      1918      1914      1960      1920      1918      1921      1922
      1920      1918      1921      1952      1921      1918      1914      1960
      1921      1922      1924      1925      1921      1922      1924      1926
      1921      1922      1924      1927      1921      1952      1950      1927
      1921      1952      1950      1947      1921      1952      1950      1951
      1921      1952      1953      1954      1921      1952      1953      1955
      1921      1952      1953      1956      1921      1952      1957      1958
      1921      1952      1957      1959      1921      1952      1957      1960
      1922      1921      1952      1950      1922      1921      1952      1953
      1922      1921      1952      1957      1922      1924      1927      1928
      1922      1924      1927      1929      1922      1924      1927      1950
      1923      1922      1921      1952      1923      1922      1924      1925
      1923      1922      1924      1926      1923      1922      1924      1927
      1924      1922      1921      1952      1924      1927      1929      1930
      1924      1927      1929      1931      1924      1927      1929      1939
      1924      1927      1950      1947      1924      1927      1950      1951
      1924      1927      1950      1952      1925      1924      1927      1928
      1925      1924      1927      1929      1925      1924      1927      1950
      1926      1924      1927      1928      1926      1924      1927      1929
      1926      1924      1927      1950      1927      1929      1931      1932
      1927      1929      1931      1933      1927      1929      1931      1934
      1927      1929      1939      1937      1927      1929      1939      1940
      1927      1929      1939      1944      1927      1950      1947      1944
      1927      1950      1947      1948      1927      1950      1947      1949
      1927      1950      1952      1953      1927      1950      1952      1957
      1928      1927      1929      1930      1928      1927      1929      1931
      1928      1927      1929      1939      1928      1927      1950      1947
      1928      1927      1950      1951      1928      1927      1950      1952
      1929      1927      1950      1947      1929      1927      1950      1951
      1929      1927      1950      1952      1929      1931      1934      1935
      1929      1931      1934      1936      1929      1931      1934      1937
      1929      1939      1937      1934      1929      1939      1937      1938
      1929      1939      1937      1963      1929      1939      1940      1941
      1929      1939      1940      1942      1929      1939      1940      1943
      1929      1939      1944      1945      1929      1939      1944      1946
      1929      1939      1944      1947      1930      1929      1927      1950
      1930      1929      1931      1932      1930      1929      1931      1933
      1930      1929      1931      1934      1930      1929      1939      1937
      1930      1929      1939      1940      1930      1929      1939      1944
      1931      1929      1927      1950      1931      1929      1939      1937
      1931      1929      1939      1940      1931      1929      1939      1944
      1931      1934      1937      1938      1931      1934      1937      1939
      1931      1934      1937      1963      1932      1931      1929      1939
      1932      1931      1934      1935      1932      1931      1934      1936
      1932      1931      1934      1937      1933      1931      1929      1939
      1933      1931      1934      1935      1933      1931      1934      1936
      1933      1931      1934      1937      1934      1931      1929      1939
      1934      1937      1939      1940      1934      1937      1939      1944
      1934      1937      1963      1964      1934      1937      1963      1965
      1934      1937      1963      1969      1935      1934      1937      1938
      1935      1934      1937      1939      1935      1934      1937      1963
      1936      1934      1937      1938      1936      1934      1937      1939
      1936      1934      1937      1963      1937      1939      1940      1941
      1937      1939      1940      1942      1937      1939      1940      1943
      1937      1939      1944      1945      1937      1939      1944      1946
      1937      1939      1944      1947      1937      1963      1965      1966
      1937      1963      1965      1967      1937      1963      1965      1968
      1937      1963      1969      1970      1937      1963      1969      1971
      1937      1963      1969      1972      1938      1937      1939      1940
      1938      1937      1939      1944      1938      1937      1963      1964
      1938      1937      1963      1965      1938      1937      1963      1969
      1939      1929      1927      1950      1939      1937      1963      1964
      1939      1937      1963      1965      1939      1937      1963      1969
      1939      1944      1947      1948      1939      1944      1947      1949
      1939      1944      1947      1950      1940      1939      1937      1963
      1940      1939      1944      1945      1940      1939      1944      1946
      1940      1939      1944      1947      1941      1940      1939      1944
      1942      1940      1939      1944      1943      1940      1939      1944
      1944      1939      1937      1963      1944      1947      1950      1951
      1944      1947      1950      1952      1945      1944      1947      1948
      1945      1944      1947      1949      1945      1944      1947      1950
      1946      1944      1947      1948      1946      1944      1947      1949
      1946      1944      1947      1950      1947      1950      1952      1953
      1947      1950      1952      1957      1948      1947      1950      1951
      1948      1947      1950      1952      1949      1947      1950      1951
      1949      1947      1950      1952      1950      1952      1953      1954
      1950      1952      1953      1955      1950      1952      1953      1956
      1950      1952      1957      1958      1950      1952      1957      1959
      1950      1952      1957      1960      1951      1950      1952      1953
      1951      1950      1952      1957      1952      1957      1960      1961
      1952      1957      1960      1962      1953      1952      1957      1958
      1953      1952      1957      1959      1953      1952      1957      1960
      1954      1953      1952      1957      1955      1953      1952      1957
      1956      1953      1952      1957      1958      1957      1960      1961
      1958      1957      1960      1962      1959      1957      1960      1961
      1959      1957      1960      1962      1963      1969      1972      1973
      1963      1969      1972      1974      1963      1969      1972      1975
      1964      1963      1965      1966      1964      1963      1965      1967
      1964      1963      1965      1968      1964      1963      1969      1970
      1964      1963      1969      1971      1964      1963      1969      1972
      1965      1963      1969      1970      1965      1963      1969      1971
      1965      1963      1969      1972      1966      1965      1963      1969
      1967      1965      1963      1969      1968      1965      1963      1969
      1969      1972      1975      1976      1969      1972      1975      1977
      1969      1972      1975      1978      1970      1969      1972      1973
      1970      1969      1972      1974      1970      1969      1972      1975
      1971      1969      1972      1973      1971      1969      1972      1974
      1971      1969      1972      1975      1972      1975      1978      1979
      1972      1975      1978      1980      1972      1975      1978      1984
      1973      1972      1975      1976      1973      1972      1975      1977
      1973      1972      1975      1978      1974      1972      1975      1976
      1974      1972      1975      1977      1974      1972      1975      1978
      1975      1978      1980      1981      1975      1978      1980      1982
      1975      1978      1980      1983      1975      1978      1984      1985
      1975      1978      1984      1986      1975      1978      1984      1987
      1976      1975      1978      1979      1976      1975      1978      1980
      1976      1975      1978      1984      1977      1975      1978      1979
      1977      1975      1978      1980      1977      1975      1978      1984
      1979      1978      1980      1981      1979      1978      1980      1982
      1979      1978      1980      1983      1979      1978      1984      1985
      1979      1978      1984      1986      1979      1978      1984      1987
      1980      1978      1984      1985      1980      1978      1984      1986
      1980      1978      1984      1987      1981      1980      1978      1984
      1982      1980      1978      1984      1983      1980      1978      1984
      1988      1992      1995      1996      1988      1992      1995      1997
      1988      1992      1995      2001      1989      1988      1992      1993
      1989      1988      1992      1994      1989      1988      1992      1995
      1990      1988      1992      1993      1990      1988      1992      1994
      1990      1988      1992      1995      1991      1988      1992      1993
      1991      1988      1992      1994      1991      1988      1992      1995
      1992      1995      2001      1998      1993      1992      1995      1996
      1993      1992      1995      1997      1993      1992      1995      2001
      1994      1992      1995      1996      1994      1992      1995      1997
      1994      1992      1995      2001      1995      2001      1998      1999
      1995      2001      1998      2000      1995      2001      1998      2002
      1996      1995      2001      1998      1997      1995      2001      1998
      1998      2002      2003      2004      1998      2002      2003      2005
      1998      2002      2003      2006      1999      1998      2002      2003
      2000      1998      2002      2003      2001      1998      2002      2003
      2002      2003      2006      2007      2002      2003      2006      2008
      2002      2003      2006      2014      2003      2006      2008      2009
      2003      2006      2014      2015      2003      2006      2014      2016
      2003      2006      2014      2017      2004      2003      2006      2007
      2004      2003      2006      2008      2004      2003      2006      2014
      2005      2003      2006      2007      2005      2003      2006      2008
      2005      2003      2006      2014      2006      2008      2009      2010
      2006      2008      2009      2011      2006      2014      2017      2018
      2007      2006      2008      2009      2007      2006      2014      2015
      2007      2006      2014      2016      2007      2006      2014      2017
      2008      2006      2014      2015      2008      2006      2014      2016
      2008      2006      2014      2017      2008      2009      2011      2012
      2008      2009      2011      2013      2008      2009      2011      2023
      2009      2008      2006      2014      2009      2011      2023      2024
      2009      2011      2023      2025      2009      2011      2023      2026
      2010      2009      2011      2012      2010      2009      2011      2013
      2010      2009      2011      2023      2011      2023      2026      2027
      2011      2023      2026      2028      2011      2023      2026      2029
      2012      2011      2023      2024      2012      2011      2023      2025
      2012      2011      2023      2026      2013      2011      2023      2024
      2013      2011      2023      2025      2013      2011      2023      2026
      2014      2017      2018      2019      2014      2017      2018      2020
      2015      2014      2017      2018      2016      2014      2017      2018
      2017      2018      2020      2021      2017      2018      2020      2022
      2017      2018      2020      2070      2018      2020      2070      2071
      2018      2020      2070      2072      2018      2020      2070      2073
      2019      2018      2020      2021      2019      2018      2020      2022
      2019      2018      2020      2070      2020      2070      2073      2074
      2020      2070      2073      2075      2020      2070      2073      2076
      2021      2020      2070      2071      2021      2020      2070      2072
      2021      2020      2070      2073      2022      2020      2070      2071
      2022      2020      2070      2072      2022      2020      2070      2073
      2023      2026      2029      2030      2023      2026      2029      2031
      2024      2023      2026      2027      2024      2023      2026      2028
      2024      2023      2026      2029      2025      2023      2026      2027
      2025      2023      2026      2028      2025      2023      2026      2029
      2026      2029      2031      2032      2026      2029      2031      2033
      2027      2026      2029      2030      2027      2026      2029      2031
      2028      2026      2029      2030      2028      2026      2029      2031
      2029      2031      2033      2034      2029      2031      2033      2035
      2029      2031      2033      2036      2030      2029      2031      2032
      2030      2029      2031      2033      2031      2033      2036      2037
      2031      2033      2036      2038      2032      2031      2033      2034
      2032      2031      2033      2035      2032      2031      2033      2036
      2033      2036      2038      2039      2033      2036      2038      2040
      2034      2033      2036      2037      2034      2033      2036      2038
      2035      2033      2036      2037      2035      2033      2036      2038
      2036      2038      2040      2041      2036      2038      2040      2042
      2036      2038      2040      2043      2037      2036      2038      2039
      2037      2036      2038      2040      2038      2040      2043      2044
      2038      2040      2043      2045      2039      2038      2040      2041
      2039      2038      2040      2042      2039      2038      2040      2043
      2040      2043      2045      2046      2040      2043      2045      2047
      2041      2040      2043      2044      2041      2040      2043      2045
      2042      2040      2043      2044      2042      2040      2043      2045
      2043      2045      2047      2048      2043      2045      2047      2049
      2043      2045      2047      2050      2044      2043      2045      2046
      2044      2043      2045      2047      2045      2047      2050      2051
      2045      2047      2050      2052      2046      2045      2047      2048
      2046      2045      2047      2049      2046      2045      2047      2050
      2047      2050      2052      2053      2047      2050      2052      2054
      2048      2047      2050      2051      2048      2047      2050      2052
      2049      2047      2050      2051      2049      2047      2050      2052
      2050      2052      2054      2055      2050      2052      2054      2056
      2050      2052      2054      2057      2051      2050      2052      2053
      2051      2050      2052      2054      2052      2054      2057      2058
      2052      2054      2057      2059      2052      2054      2057      2060
      2053      2052      2054      2055      2053      2052      2054      2056
      2053      2052      2054      2057      2054      2057      2060      2061
      2054      2057      2060      2062      2054      2057      2060      2063
      2055      2054      2057      2058      2055      2054      2057      2059
      2055      2054      2057      2060      2056      2054      2057      2058
      2056      2054      2057      2059      2056      2054      2057      2060
      2057      2060      2063      2064      2057      2060      2063      2065
      2057      2060      2063      2066      2058      2057      2060      2061
      2058      2057      2060      2062      2058      2057      2060      2063
      2059      2057      2060      2061      2059      2057      2060      2062
      2059      2057      2060      2063      2060      2063      2066      2067
      2060      2063      2066      2068      2060      2063      2066      2069
      2061      2060      2063      2064      2061      2060      2063      2065
      2061      2060      2063      2066      2062      2060      2063      2064
      2062      2060      2063      2065      2062      2060      2063      2066
      2064      2063      2066      2067      2064      2063      2066      2068
      2064      2063      2066      2069      2065      2063      2066      2067
      2065      2063      2066      2068      2065      2063      2066      2069
      2070      2073      2076      2077      2070      2073      2076      2078
      2070      2073      2076      2079      2071      2070      2073      2074
      2071      2070      2073      2075      2071      2070      2073      2076
      2072      2070      2073      2074      2072      2070      2073      2075
      2072      2070      2073      2076      2073      2076      2079      2080
      2073      2076      2079      2081      2073      2076      2079      2082
      2074      2073      2076      2077      2074      2073      2076      2078
      2074      2073      2076      2079      2075      2073      2076      2077
      2075      2073      2076      2078      2075      2073      2076      2079
      2076      2079      2082      2083      2076      2079      2082      2084
      2076      2079      2082      2085      2077      2076      2079      2080
      2077      2076      2079      2081      2077      2076      2079      2082
      2078      2076      2079      2080      2078      2076      2079      2081
      2078      2076      2079      2082      2079      2082      2085      2086
      2079      2082      2085      2087      2079      2082      2085      2088
      2080      2079      2082      2083      2080      2079      2082      2084
      2080      2079      2082      2085      2081      2079      2082      2083
      2081      2079      2082      2084      2081      2079      2082      2085
      2082      2085      2088      2089      2082      2085      2088      2090
      2082      2085      2088      2091      2083      2082      2085      2086
      2083      2082      2085      2087      2083      2082      2085      2088
      2084      2082      2085      2086      2084      2082      2085      2087
      2084      2082      2085      2088      2085      2088      2091      2092
      2085      2088      2091      2093      2085      2088      2091      2094
      2086      2085      2088      2089      2086      2085      2088      2090
      2086      2085      2088      2091      2087      2085      2088      2089
      2087      2085      2088      2090      2087      2085      2088      2091
      2088      2091      2094      2095      2088      2091      2094      2096
      2088      2091      2094      2097      2089      2088      2091      2092
      2089      2088      2091      2093      2089      2088      2091      2094
      2090      2088      2091      2092      2090      2088      2091      2093
      2090      2088      2091      2094      2091      2094      2097      2098
      2091      2094      2097      2099      2091      2094      2097      2100
      2092      2091      2094      2095      2092      2091      2094      2096
      2092      2091      2094      2097      2093      2091      2094      2095
      2093      2091      2094      2096      2093      2091      2094      2097
      2094      2097      2100      2101      2094      2097      2100      2102
      2094      2097      2100      2103      2095      2094      2097      2098
      2095      2094      2097      2099      2095      2094      2097      2100
      2096      2094      2097      2098      2096      2094      2097      2099
      2096      2094      2097      2100      2097      2100      2103      2104
      2097      2100      2103      2105      2097      2100      2103      2106
      2098      2097      2100      2101      2098      2097      2100      2102
      2098      2097      2100      2103      2099      2097      2100      2101
      2099      2097      2100      2102      2099      2097      2100      2103
      2100      2103      2106      2107      2100      2103      2106      2108
      2100      2103      2106      2109      2101      2100      2103      2104
      2101      2100      2103      2105      2101      2100      2103      2106
      2102      2100      2103      2104      2102      2100      2103      2105
      2102      2100      2103      2106      2103      2106      2109      2110
      2103      2106      2109      2111      2103      2106      2109      2112
      2104      2103      2106      2107      2104      2103      2106      2108
      2104      2103      2106      2109      2105      2103      2106      2107
      2105      2103      2106      2108      2105      2103      2106      2109
      2106      2109      2112      2113      2106      2109      2112      2114
      2106      2109      2112      2115      2107      2106      2109      2110
      2107      2106      2109      2111      2107      2106      2109      2112
      2108      2106      2109      2110      2108      2106      2109      2111
      2108      2106      2109      2112      2109      2112      2115      2116
      2109      2112      2115      2117      2109      2112      2115      2118
      2110      2109      2112      2113      2110      2109      2112      2114
      2110      2109      2112      2115      2111      2109      2112      2113
      2111      2109      2112      2114      2111      2109      2112      2115
      2113      2112      2115      2116      2113      2112      2115      2117
      2113      2112      2115      2118      2114      2112      2115      2116
      2114      2112      2115      2117      2114      2112      2115      2118
      2119      2123      2126      2127      2119      2123      2126      2157
      2119      2165      2162      2157      2119      2165      2162      2163
      2119      2165      2162      2164      2120      2119      2121      2122
      2120      2119      2123      2124      2120      2119      2123      2125
      2120      2119      2123      2126      2120      2119      2165      2162
      2120      2119      2165      2166      2120      2119      2165      2167
      2121      2119      2123      2124      2121      2119      2123      2125
      2121      2119      2123      2126      2121      2119      2165      2162
      2121      2119      2165      2166      2121      2119      2165      2167
      2122      2121      2119      2123      2122      2121      2119      2165
      2123      2119      2165      2162      2123      2119      2165      2166
      2123      2119      2165      2167      2123      2126      2127      2128
      2123      2126      2127      2129      2123      2126      2157      2155
      2123      2126      2157      2158      2123      2126      2157      2162
      2124      2123      2119      2165      2124      2123      2126      2127
      2124      2123      2126      2157      2125      2123      2119      2165
      2125      2123      2126      2127      2125      2123      2126      2157
      2126      2123      2119      2165      2126      2127      2129      2130
      2126      2127      2129      2131      2126      2127      2129      2132
      2126      2157      2155      2132      2126      2157      2155      2152
      2126      2157      2155      2156      2126      2157      2158      2159
      2126      2157      2158      2160      2126      2157      2158      2161
      2126      2157      2162      2163      2126      2157      2162      2164
      2126      2157      2162      2165      2127      2126      2157      2155
      2127      2126      2157      2158      2127      2126      2157      2162
      2127      2129      2132      2133      2127      2129      2132      2134
      2127      2129      2132      2155      2128      2127      2126      2157
      2128      2127      2129      2130      2128      2127      2129      2131
      2128      2127      2129      2132      2129      2127      2126      2157
      2129      2132      2134      2135      2129      2132      2134      2136
      2129      2132      2134      2144      2129      2132      2155      2152
      2129      2132      2155      2156      2129      2132      2155      2157
      2130      2129      2132      2133      2130      2129      2132      2134
      2130      2129      2132      2155      2131      2129      2132      2133
      2131      2129      2132      2134      2131      2129      2132      2155
      2132      2134      2136      2137      2132      2134      2136      2138
      2132      2134      2136      2139      2132      2134      2144      2142
      2132      2134      2144      2145      2132      2134      2144      2149
      2132      2155      2152      2149      2132      2155      2152      2153
      2132      2155      2152      2154      2132      2155      2157      2158
      2132      2155      2157      2162      2133      2132      2134      2135
      2133      2132      2134      2136      2133      2132      2134      2144
      2133      2132      2155      2152      2133      2132      2155      2156
      2133      2132      2155      2157      2134      2132      2155      2152
      2134      2132      2155      2156      2134      2132      2155      2157
      2134      2136      2139      2140      2134      2136      2139      2141
      2134      2136      2139      2142      2134      2144      2142      2139
      2134      2144      2142      2143      2134      2144      2142      2168
      2134      2144      2145      2146      2134      2144      2145      2147
      2134      2144      2145      2148      2134      2144      2149      2150
      2134      2144      2149      2151      2134      2144      2149      2152
      2135      2134      2132      2155      2135      2134      2136      2137
      2135      2134      2136      2138      2135      2134      2136      2139
      2135      2134      2144      2142      2135      2134      2144      2145
      2135      2134      2144      2149      2136      2134      2132      2155
      2136      2134      2144      2142      2136      2134      2144      2145
      2136      2134      2144      2149      2136      2139      2142      2143
      2136      2139      2142      2144      2136      2139      2142      2168
      2137      2136      2134      2144      2137      2136      2139      2140
      2137      2136      2139      2141      2137      2136      2139      2142
      2138      2136      2134      2144      2138      2136      2139      2140
      2138      2136      2139      2141      2138      2136      2139      2142
      2139      2136      2134      2144      2139      2142      2144      2145
      2139      2142      2144      2149      2139      2142      2168      2169
      2139      2142      2168      2170      2139      2142      2168      2174
      2140      2139      2142      2143      2140      2139      2142      2144
      2140      2139      2142      2168      2141      2139      2142      2143
      2141      2139      2142      2144      2141      2139      2142      2168
      2142      2144      2145      2146      2142      2144      2145      2147
      2142      2144      2145      2148      2142      2144      2149      2150
      2142      2144      2149      2151      2142      2144      2149      2152
      2142      2168      2170      2171      2142      2168      2170      2172
      2142      2168      2170      2173      2142      2168      2174      2175
      2142      2168      2174      2176      2142      2168      2174      2177
      2143      2142      2144      2145      2143      2142      2144      2149
      2143      2142      2168      2169      2143      2142      2168      2170
      2143      2142      2168      2174      2144      2134      2132      2155
      2144      2142      2168      2169      2144      2142      2168      2170
      2144      2142      2168      2174      2144      2149      2152      2153
      2144      2149      2152      2154      2144      2149      2152      2155
      2145      2144      2142      2168      2145      2144      2149      2150
      2145      2144      2149      2151      2145      2144      2149      2152
      2146      2145      2144      2149      2147      2145      2144      2149
      2148      2145      2144      2149      2149      2144      2142      2168
      2149      2152      2155      2156      2149      2152      2155      2157
      2150      2149      2152      2153      2150      2149      2152      2154
      2150      2149      2152      2155      2151      2149      2152      2153
      2151      2149      2152      2154      2151      2149      2152      2155
      2152      2155      2157      2158      2152      2155      2157      2162
      2153      2152      2155      2156      2153      2152      2155      2157
      2154      2152      2155      2156      2154      2152      2155      2157
      2155      2157      2158      2159      2155      2157      2158      2160
      2155      2157      2158      2161      2155      2157      2162      2163
      2155      2157      2162      2164      2155      2157      2162      2165
      2156      2155      2157      2158      2156      2155      2157      2162
      2157      2162      2165      2166      2157      2162      2165      2167
      2158      2157      2162      2163      2158      2157      2162      2164
      2158      2157      2162      2165      2159      2158      2157      2162
      2160      2158      2157      2162      2161      2158      2157      2162
      2163      2162      2165      2166      2163      2162      2165      2167
      2164      2162      2165      2166      2164      2162      2165      2167
      2168      2174      2177      2178      2168      2174      2177      2179
      2168      2174      2177      2180      2169      2168      2170      2171
      2169      2168      2170      2172      2169      2168      2170      2173
      2169      2168      2174      2175      2169      2168      2174      2176
      2169      2168      2174      2177      2170      2168      2174      2175
      2170      2168      2174      2176      2170      2168      2174      2177
      2171      2170      2168      2174      2172      2170      2168      2174
      2173      2170      2168      2174      2174      2177      2180      2181
      2174      2177      2180      2182      2174      2177      2180      2183
      2175      2174      2177      2178      2175      2174      2177      2179
      2175      2174      2177      2180      2176      2174      2177      2178
      2176      2174      2177      2179      2176      2174      2177      2180
      2177      2180      2183      2184      2177      2180      2183      2185
      2177      2180      2183      2189      2178      2177      2180      2181
      2178      2177      2180      2182      2178      2177      2180      2183
      2179      2177      2180      2181      2179      2177      2180      2182
      2179      2177      2180      2183      2180      2183      2185      2186
      2180      2183      2185      2187      2180      2183      2185      2188
      2180      2183      2189      2190      2180      2183      2189      2191
      2180      2183      2189      2192      2181      2180      2183      2184
      2181      2180      2183      2185      2181      2180      2183      2189
      2182      2180      2183      2184      2182      2180      2183      2185
      2182      2180      2183      2189      2184      2183      2185      2186
      2184      2183      2185      2187      2184      2183      2185      2188
      2184      2183      2189      2190      2184      2183      2189      2191
      2184      2183      2189      2192      2185      2183      2189      2190
      2185      2183      2189      2191      2185      2183      2189      2192
      2186      2185      2183      2189      2187      2185      2183      2189
      2188      2185      2183      2189      2193      2197      2200      2201
      2193      2197      2200      2202      2193      2197      2200      2206
      2194      2193      2197      2198      2194      2193      2197      2199
      2194      2193      2197      2200      2195      2193      2197      2198
      2195      2193      2197      2199      2195      2193      2197      2200
      2196      2193      2197      2198      2196      2193      2197      2199
      2196      2193      2197      2200      2197      2200      2206      2203
      2198      2197      2200      2201      2198      2197      2200      2202
      2198      2197      2200      2206      2199      2197      2200      2201
      2199      2197      2200      2202      2199      2197      2200      2206
      2200      2206      2203      2204      2200      2206      2203      2205
      2200      2206      2203      2207      2201      2200      2206      2203
      2202      2200      2206      2203      2203      2207      2208      2209
      2203      2207      2208      2210      2203      2207      2208      2211
      2204      2203      2207      2208      2205      2203      2207      2208
      2206      2203      2207      2208      2207      2208      2211      2212
      2207      2208      2211      2213      2207      2208      2211      2219
      2208      2211      2213      2214      2208      2211      2219      2220
      2208      2211      2219      2221      2208      2211      2219      2222
      2209      2208      2211      2212      2209      2208      2211      2213
      2209      2208      2211      2219      2210      2208      2211      2212
      2210      2208      2211      2213      2210      2208      2211      2219
      2211      2213      2214      2215      2211      2213      2214      2216
      2211      2219      2222      2223      2212      2211      2213      2214
      2212      2211      2219      2220      2212      2211      2219      2221
      2212      2211      2219      2222      2213      2211      2219      2220
      2213      2211      2219      2221      2213      2211      2219      2222
      2213      2214      2216      2217      2213      2214      2216      2218
      2213      2214      2216      2228      2214      2213      2211      2219
      2214      2216      2228      2229      2214      2216      2228      2230
      2214      2216      2228      2231      2215      2214      2216      2217
      2215      2214      2216      2218      2215      2214      2216      2228
      2216      2228      2231      2232      2216      2228      2231      2233
      2216      2228      2231      2234      2217      2216      2228      2229
      2217      2216      2228      2230      2217      2216      2228      2231
      2218      2216      2228      2229      2218      2216      2228      2230
      2218      2216      2228      2231      2219      2222      2223      2224
      2219      2222      2223      2225      2220      2219      2222      2223
      2221      2219      2222      2223      2222      2223      2225      2226
      2222      2223      2225      2227      2222      2223      2225      2275
      2223      2225      2275      2276      2223      2225      2275      2277
      2223      2225      2275      2278      2224      2223      2225      2226
      2224      2223      2225      2227      2224      2223      2225      2275
      2225      2275      2278      2279      2225      2275      2278      2280
      2225      2275      2278      2281      2226      2225      2275      2276
      2226      2225      2275      2277      2226      2225      2275      2278
      2227      2225      2275      2276      2227      2225      2275      2277
      2227      2225      2275      2278      2228      2231      2234      2235
      2228      2231      2234      2236      2228      2231      2234      2237
      2229      2228      2231      2232      2229      2228      2231      2233
      2229      2228      2231      2234      2230      2228      2231      2232
      2230      2228      2231      2233      2230      2228      2231      2234
      2231      2234      2237      2238      2231      2234      2237      2239
      2231      2234      2237      2240      2232      2231      2234      2235
      2232      2231      2234      2236      2232      2231      2234      2237
      2233      2231      2234      2235      2233      2231      2234      2236
      2233      2231      2234      2237      2234      2237      2240      2241
      2234      2237      2240      2242      2234      2237      2240      2243
      2235      2234      2237      2238      2235      2234      2237      2239
      2235      2234      2237      2240      2236      2234      2237      2238
      2236      2234      2237      2239      2236      2234      2237      2240
      2237      2240      2243      2244      2237      2240      2243      2245
      2237      2240      2243      2246      2238      2237      2240      2241
      2238      2237      2240      2242      2238      2237      2240      2243
      2239      2237      2240      2241      2239      2237      2240      2242
      2239      2237      2240      2243      2240      2243      2246      2247
      2240      2243      2246      2248      2241      2240      2243      2244
      2241      2240      2243      2245      2241      2240      2243      2246
      2242      2240      2243      2244      2242      2240      2243      2245
      2242      2240      2243      2246      2243      2246      2248      2249
      2243      2246      2248      2250      2244      2243      2246      2247
      2244      2243      2246      2248      2245      2243      2246      2247
      2245      2243      2246      2248      2246      2248      2250      2251
      2246      2248      2250      2252      2246      2248      2250      2253
      2247      2246      2248      2249      2247      2246      2248      2250
      2248      2250      2253      2254      2248      2250      2253      2255
      2248      2250      2253      2256      2249      2248      2250      2251
      2249      2248      2250      2252      2249      2248      2250      2253
      2250      2253      2256      2257      2250      2253      2256      2258
      2250      2253      2256      2259      2251      2250      2253      2254
      2251      2250      2253      2255      2251      2250      2253      2256
      2252      2250      2253      2254      2252      2250      2253      2255
      2252      2250      2253      2256      2253      2256      2259      2260
      2253      2256      2259      2261      2253      2256      2259      2262
      2254      2253      2256      2257      2254      2253      2256      2258
      2254      2253      2256      2259      2255      2253      2256      2257
      2255      2253      2256      2258      2255      2253      2256      2259
      2256      2259      2262      2263      2256      2259      2262      2264
      2256      2259      2262      2265      2257      2256      2259      2260
      2257      2256      2259      2261      2257      2256      2259      2262
      2258      2256      2259      2260      2258      2256      2259      2261
      2258      2256      2259      2262      2259      2262      2265      2266
      2259      2262      2265      2267      2259      2262      2265      2268
      2260      2259      2262      2263      2260      2259      2262      2264
      2260      2259      2262      2265      2261      2259      2262      2263
      2261      2259      2262      2264      2261      2259      2262      2265
      2262      2265      2268      2269      2262      2265      2268      2270
      2262      2265      2268      2271      2263      2262      2265      2266
      2263      2262      2265      2267      2263      2262      2265      2268
      2264      2262      2265      2266      2264      2262      2265      2267
      2264      2262      2265      2268      2265      2268      2271      2272
      2265      2268      2271      2273      2265      2268      2271      2274
      2266      2265      2268      2269      2266      2265      2268      2270
      2266      2265      2268      2271      2267      2265      2268      2269
      2267      2265      2268      2270      2267      2265      2268      2271
      2269      2268      2271      2272      2269      2268      2271      2273
      2269      2268      2271      2274      2270      2268      2271      2272
      2270      2268      2271      2273      2270      2268      2271      2274
      2275      2278      2281      2282      2275      2278      2281      2283
      2275      2278      2281      2284      2276      2275      2278      2279
      2276      2275      2278      2280      2276      2275      2278      2281
      2277      2275      2278      2279      2277      2275      2278      2280
      2277      2275      2278      2281      2278      2281      2284      2285
      2278      2281      2284      2286      2278      2281      2284      2287
      2279      2278      2281      2282      2279      2278      2281      2283
      2279      2278      2281      2284      2280      2278      2281      2282
      2280      2278      2281      2283      2280      2278      2281      2284
      2281      2284      2287      2288      2281      2284      2287      2289
      2281      2284      2287      2290      2282      2281      2284      2285
      2282      2281      2284      2286      2282      2281      2284      2287
      2283      2281      2284      2285      2283      2281      2284      2286
      2283      2281      2284      2287      2284      2287      2290      2291
      2284      2287      2290      2292      2284      2287      2290      2293
      2285      2284      2287      2288      2285      2284      2287      2289
      2285      2284      2287      2290      2286      2284      2287      2288
      2286      2284      2287      2289      2286      2284      2287      2290
      2287      2290      2293      2294      2287      2290      2293      2295
      2287      2290      2293      2296      2288      2287      2290      2291
      2288      2287      2290      2292      2288      2287      2290      2293
      2289      2287      2290      2291      2289      2287      2290      2292
      2289      2287      2290      2293      2290      2293      2296      2297
      2290      2293      2296      2298      2290      2293      2296      2299
      2291      2290      2293      2294      2291      2290      2293      2295
      2291      2290      2293      2296      2292      2290      2293      2294
      2292      2290      2293      2295      2292      2290      2293      2296
      2293      2296      2299      2300      2293      2296      2299      2301
      2293      2296      2299      2302      2294      2293      2296      2297
      2294      2293      2296      2298      2294      2293      2296      2299
      2295      2293      2296      2297      2295      2293      2296      2298
      2295      2293      2296      2299      2296      2299      2302      2303
      2296      2299      2302      2304      2296      2299      2302      2305
      2297      2296      2299      2300      2297      2296      2299      2301
      2297      2296      2299      2302      2298      2296      2299      2300
      2298      2296      2299      2301      2298      2296      2299      2302
      2299      2302      2305      2306      2299      2302      2305      2307
      2299      2302      2305      2308      2300      2299      2302      2303
      2300      2299      2302      2304      2300      2299      2302      2305
      2301      2299      2302      2303      2301      2299      2302      2304
      2301      2299      2302      2305      2302      2305      2308      2309
      2302      2305      2308      2310      2302      2305      2308      2311
      2303      2302      2305      2306      2303      2302      2305      2307
      2303      2302      2305      2308      2304      2302      2305      2306
      2304      2302      2305      2307      2304      2302      2305      2308
      2305      2308      2311      2312      2305      2308      2311      2313
      2305      2308      2311      2314      2306      2305      2308      2309
      2306      2305      2308      2310      2306      2305      2308      2311
      2307      2305      2308      2309      2307      2305      2308      2310
      2307      2305      2308      2311      2308      2311      2314      2315
      2308      2311      2314      2316      2308      2311      2314      2317
      2309      2308      2311      2312      2309      2308      2311      2313
      2309      2308      2311      2314      2310      2308      2311      2312
      2310      2308      2311      2313      2310      2308      2311      2314
      2311      2314      2317      2318      2311      2314      2317      2319
      2311      2314      2317      2320      2312      2311      2314      2315
      2312      2311      2314      2316      2312      2311      2314      2317
      2313      2311      2314      2315      2313      2311      2314      2316
      2313      2311      2314      2317      2314      2317      2320      2321
      2314      2317      2320      2322      2314      2317      2320      2323
      2315      2314      2317      2318      2315      2314      2317      2319
      2315      2314      2317      2320      2316      2314      2317      2318
      2316      2314      2317      2319      2316      2314      2317      2320
      2318      2317      2320      2321      2318      2317      2320      2322
      2318      2317      2320      2323      2319      2317      2320      2321
      2319      2317      2320      2322      2319      2317      2320      2323
      2324      2328      2331      2332      2324      2328      2331      2333
      2324      2328      2331      2337      2325      2324      2328      2329
      2325      2324      2328      2330      2325      2324      2328      2331
      2326      2324      2328      2329      2326      2324      2328      2330
      2326      2324      2328      2331      2327      2324      2328      2329
      2327      2324      2328      2330      2327      2324      2328      2331
      2328      2331      2337      2334      2329      2328      2331      2332
      2329      2328      2331      2333      2329      2328      2331      2337
      2330      2328      2331      2332      2330      2328      2331      2333
      2330      2328      2331      2337      2331      2337      2334      2335
      2331      2337      2334      2336      2331      2337      2334      2338
      2332      2331      2337      2334      2333      2331      2337      2334
      2334      2338      2339      2340      2334      2338      2339      2341
      2334      2338      2339      2342      2335      2334      2338      2339
      2336      2334      2338      2339      2337      2334      2338      2339
      2338      2339      2342      2343      2338      2339      2342      2344
      2338      2339      2342      2350      2339      2342      2344      2345
      2339      2342      2350      2351      2339      2342      2350      2352
      2339      2342      2350      2353      2340      2339      2342      2343
      2340      2339      2342      2344      2340      2339      2342      2350
      2341      2339      2342      2343      2341      2339      2342      2344
      2341      2339      2342      2350      2342      2344      2345      2346
      2342      2344      2345      2347      2342      2350      2353      2354
      2343      2342      2344      2345      2343      2342      2350      2351
      2343      2342      2350      2352      2343      2342      2350      2353
      2344      2342      2350      2351      2344      2342      2350      2352
      2344      2342      2350      2353      2344      2345      2347      2348
      2344      2345      2347      2349      2344      2345      2347      2359
      2345      2344      2342      2350      2345      2347      2359      2360
      2345      2347      2359      2361      2345      2347      2359      2362
      2346      2345      2347      2348      2346      2345      2347      2349
      2346      2345      2347      2359      2347      2359      2362      2363
      2347      2359      2362      2364      2347      2359      2362      2365
      2348      2347      2359      2360      2348      2347      2359      2361
      2348      2347      2359      2362      2349      2347      2359      2360
      2349      2347      2359      2361      2349      2347      2359      2362
      2350      2353      2354      2355      2350      2353      2354      2356
      2351      2350      2353      2354      2352      2350      2353      2354
      2353      2354      2356      2357      2353      2354      2356      2358
      2353      2354      2356      2406      2354      2356      2406      2407
      2354      2356      2406      2408      2354      2356      2406      2409
      2355      2354      2356      2357      2355      2354      2356      2358
      2355      2354      2356      2406      2356      2406      2409      2410
      2356      2406      2409      2411      2356      2406      2409      2412
      2357      2356      2406      2407      2357      2356      2406      2408
      2357      2356      2406      2409      2358      2356      2406      2407
      2358      2356      2406      2408      2358      2356      2406      2409
      2359      2362      2365      2366      2359      2362      2365      2367
      2360      2359      2362      2363      2360      2359      2362      2364
      2360      2359      2362      2365      2361      2359      2362      2363
      2361      2359      2362      2364      2361      2359      2362      2365
      2362      2365      2367      2368      2362      2365      2367      2369
      2363      2362      2365      2366      2363      2362      2365      2367
      2364      2362      2365      2366      2364      2362      2365      2367
      2365      2367      2369      2370      2365      2367      2369      2371
      2365      2367      2369      2372      2366      2365      2367      2368
      2366      2365      2367      2369      2367      2369      2372      2373
      2367      2369      2372      2374      2368      2367      2369      2370
      2368      2367      2369      2371      2368      2367      2369      2372
      2369      2372      2374      2375      2369      2372      2374      2376
      2370      2369      2372      2373      2370      2369      2372      2374
      2371      2369      2372      2373      2371      2369      2372      2374
      2372      2374      2376      2377      2372      2374      2376      2378
      2372      2374      2376      2379      2373      2372      2374      2375
      2373      2372      2374      2376      2374      2376      2379      2380
      2374      2376      2379      2381      2375      2374      2376      2377
      2375      2374      2376      2378      2375      2374      2376      2379
      2376      2379      2381      2382      2376      2379      2381      2383
      2377      2376      2379      2380      2377      2376      2379      2381
      2378      2376      2379      2380      2378      2376      2379      2381
      2379      2381      2383      2384      2379      2381      2383      2385
      2379      2381      2383      2386      2380      2379      2381      2382
      2380      2379      2381      2383      2381      2383      2386      2387
      2381      2383      2386      2388      2382      2381      2383      2384
      2382      2381      2383      2385      2382      2381      2383      2386
      2383      2386      2388      2389      2383      2386      2388      2390
      2384      2383      2386      2387      2384      2383      2386      2388
      2385      2383      2386      2387      2385      2383      2386      2388
      2386      2388      2390      2391      2386      2388      2390      2392
      2386      2388      2390      2393      2387      2386      2388      2389
      2387      2386      2388      2390      2388      2390      2393      2394
      2388      2390      2393      2395      2388      2390      2393      2396
      2389      2388      2390      2391      2389      2388      2390      2392
      2389      2388      2390      2393      2390      2393      2396      2397
      2390      2393      2396      2398      2390      2393      2396      2399
      2391      2390      2393      2394      2391      2390      2393      2395
      2391      2390      2393      2396      2392      2390      2393      2394
      2392      2390      2393      2395      2392      2390      2393      2396
      2393      2396      2399      2400      2393      2396      2399      2401
      2393      2396      2399      2402      2394      2393      2396      2397
      2394      2393      2396      2398      2394      2393      2396      2399
      2395      2393      2396      2397      2395      2393      2396      2398
      2395      2393      2396      2399      2396      2399      2402      2403
      2396      2399      2402      2404      2396      2399      2402      2405
      2397      2396      2399      2400      2397      2396      2399      2401
      2397      2396      2399      2402      2398      2396      2399      2400
      2398      2396      2399      2401      2398      2396      2399      2402
      2400      2399      2402      2403      2400      2399      2402      2404
      2400      2399      2402      2405      2401      2399      2402      2403
      2401      2399      2402      2404      2401      2399      2402      2405
      2406      2409      2412      2413      2406      2409      2412      2414
      2406      2409      2412      2415      2407      2406      2409      2410
      2407      2406      2409      2411      2407      2406      2409      2412
      2408      2406      2409      2410      2408      2406      2409      2411
      2408      2406      2409      2412      2409      2412      2415      2416
      2409      2412      2415      2417      2409      2412      2415      2418
      2410      2409      2412      2413      2410      2409      2412      2414
      2410      2409      2412      2415      2411      2409      2412      2413
      2411      2409      2412      2414      2411      2409      2412      2415
      2412      2415      2418      2419      2412      2415      2418      2420
      2412      2415      2418      2421      2413      2412      2415      2416
      2413      2412      2415      2417      2413      2412      2415      2418
      2414      2412      2415      2416      2414      2412      2415      2417
      2414      2412      2415      2418      2415      2418      2421      2422
      2415      2418      2421      2423      2415      2418      2421      2424
      2416      2415      2418      2419      2416      2415      2418      2420
      2416      2415      2418      2421      2417      2415      2418      2419
      2417      2415      2418      2420      2417      2415      2418      2421
      2418      2421      2424      2425      2418      2421      2424      2426
      2418      2421      2424      2427      2419      2418      2421      2422
      2419      2418      2421      2423      2419      2418      2421      2424
      2420      2418      2421      2422      2420      2418      2421      2423
      2420      2418      2421      2424      2421      2424      2427      2428
      2421      2424      2427      2429      2421      2424      2427      2430
      2422      2421      2424      2425      2422      2421      2424      2426
      2422      2421      2424      2427      2423      2421      2424      2425
      2423      2421      2424      2426      2423      2421      2424      2427
      2424      2427      2430      2431      2424      2427      2430      2432
      2424      2427      2430      2433      2425      2424      2427      2428
      2425      2424      2427      2429      2425      2424      2427      2430
      2426      2424      2427      2428      2426      2424      2427      2429
      2426      2424      2427      2430      2427      2430      2433      2434
      2427      2430      2433      2435      2427      2430      2433      2436
      2428      2427      2430      2431      2428      2427      2430      2432
      2428      2427      2430      2433      2429      2427      2430      2431
      2429      2427      2430      2432      2429      2427      2430      2433
      2430      2433      2436      2437      2430      2433      2436      2438
      2430      2433      2436      2439      2431      2430      2433      2434
      2431      2430      2433      2435      2431      2430      2433      2436
      2432      2430      2433      2434      2432      2430      2433      2435
      2432      2430      2433      2436      2433      2436      2439      2440
      2433      2436      2439      2441      2433      2436      2439      2442
      2434      2433      2436      2437      2434      2433      2436      2438
      2434      2433      2436      2439      2435      2433      2436      2437
      2435      2433      2436      2438      2435      2433      2436      2439
      2436      2439      2442      2443      2436      2439      2442      2444
      2436      2439      2442      2445      2437      2436      2439      2440
      2437      2436      2439      2441      2437      2436      2439      2442
      2438      2436      2439      2440      2438      2436      2439      2441
      2438      2436      2439      2442      2439      2442      2445      2446
      2439      2442      2445      2447      2439      2442      2445      2448
      2440      2439      2442      2443      2440      2439      2442      2444
      2440      2439      2442      2445      2441      2439      2442      2443
      2441      2439      2442      2444      2441      2439      2442      2445
      2442      2445      2448      2449      2442      2445      2448      2450
      2442      2445      2448      2451      2443      2442      2445      2446
      2443      2442      2445      2447      2443      2442      2445      2448
      2444      2442      2445      2446      2444      2442      2445      2447
      2444      2442      2445      2448      2445      2448      2451      2452
      2445      2448      2451      2453      2445      2448      2451      2454
      2446      2445      2448      2449      2446      2445      2448      2450
      2446      2445      2448      2451      2447      2445      2448      2449
      2447      2445      2448      2450      2447      2445      2448      2451
      2449      2448      2451      2452      2449      2448      2451      2453
      2449      2448      2451      2454      2450      2448      2451      2452
      2450      2448      2451      2453      2450      2448      2451      2454
      2455      2459      2461      2462      2455      2459      2461      2463
      2455      2459      2464      2465      2455      2459      2464      2466
      2455      2459      2464      2470      2456      2455      2459      2460
      2456      2455      2459      2461      2456      2455      2459      2464
      2457      2455      2459      2460      2457      2455      2459      2461
      2457      2455      2459      2464      2458      2455      2459      2460
      2458      2455      2459      2461      2458      2455      2459      2464
      2459      2464      2470      2467      2460      2459      2461      2462
      2460      2459      2461      2463      2460      2459      2464      2465
      2460      2459      2464      2466      2460      2459      2464      2470
      2461      2459      2464      2465      2461      2459      2464      2466
      2461      2459      2464      2470      2462      2461      2459      2464
      2463      2461      2459      2464      2464      2470      2467      2468
      2464      2470      2467      2469      2464      2470      2467      2471
      2465      2464      2470      2467      2466      2464      2470      2467
      2467      2471      2472      2473      2467      2471      2472      2474
      2467      2471      2472      2475      2468      2467      2471      2472
      2469      2467      2471      2472      2470      2467      2471      2472
      2471      2472      2475      2476      2471      2472      2475      2477
      2471      2472      2475      2483      2472      2475      2477      2478
      2472      2475      2483      2484      2472      2475      2483      2485
      2472      2475      2483      2486      2473      2472      2475      2476
      2473      2472      2475      2477      2473      2472      2475      2483
      2474      2472      2475      2476      2474      2472      2475      2477
      2474      2472      2475      2483      2475      2477      2478      2479
      2475      2477      2478      2480      2475      2483      2486      2487
      2476      2475      2477      2478      2476      2475      2483      2484
      2476      2475      2483      2485      2476      2475      2483      2486
      2477      2475      2483      2484      2477      2475      2483      2485
      2477      2475      2483      2486      2477      2478      2480      2481
      2477      2478      2480      2482      2477      2478      2480      2492
      2478      2477      2475      2483      2478      2480      2492      2493
      2478      2480      2492      2494      2478      2480      2492      2495
      2479      2478      2480      2481      2479      2478      2480      2482
      2479      2478      2480      2492      2480      2492      2495      2496
      2480      2492      2495      2497      2480      2492      2495      2498
      2481      2480      2492      2493      2481      2480      2492      2494
      2481      2480      2492      2495      2482      2480      2492      2493
      2482      2480      2492      2494      2482      2480      2492      2495
      2483      2486      2487      2488      2483      2486      2487      2489
      2484      2483      2486      2487      2485      2483      2486      2487
      2486      2487      2489      2490      2486      2487      2489      2491
      2486      2487      2489      2539      2487      2489      2539      2540
      2487      2489      2539      2541      2487      2489      2539      2542
      2488      2487      2489      2490      2488      2487      2489      2491
      2488      2487      2489      2539      2489      2539      2542      2543
      2489      2539      2542      2544      2489      2539      2542      2545
      2490      2489      2539      2540      2490      2489      2539      2541
      2490      2489      2539      2542      2491      2489      2539      2540
      2491      2489      2539      2541      2491      2489      2539      2542
      2492      2495      2498      2499      2492      2495      2498      2500
      2493      2492      2495      2496      2493      2492      2495      2497
      2493      2492      2495      2498      2494      2492      2495      2496
      2494      2492      2495      2497      2494      2492      2495      2498
      2495      2498      2500      2501      2495      2498      2500      2502
      2496      2495      2498      2499      2496      2495      2498      2500
      2497      2495      2498      2499      2497      2495      2498      2500
      2498      2500      2502      2503      2498      2500      2502      2504
      2498      2500      2502      2505      2499      2498      2500      2501
      2499      2498      2500      2502      2500      2502      2505      2506
      2500      2502      2505      2507      2501      2500      2502      2503
      2501      2500      2502      2504      2501      2500      2502      2505
      2502      2505      2507      2508      2502      2505      2507      2509
      2503      2502      2505      2506      2503      2502      2505      2507
      2504      2502      2505      2506      2504      2502      2505      2507
      2505      2507      2509      2510      2505      2507      2509      2511
      2505      2507      2509      2512      2506      2505      2507      2508
      2506      2505      2507      2509      2507      2509      2512      2513
      2507      2509      2512      2514      2508      2507      2509      2510
      2508      2507      2509      2511      2508      2507      2509      2512
      2509      2512      2514      2515      2509      2512      2514      2516
      2510      2509      2512      2513      2510      2509      2512      2514
      2511      2509      2512      2513      2511      2509      2512      2514
      2512      2514      2516      2517      2512      2514      2516      2518
      2512      2514      2516      2519      2513      2512      2514      2515
      2513      2512      2514      2516      2514      2516      2519      2520
      2514      2516      2519      2521      2515      2514      2516      2517
      2515      2514      2516      2518      2515      2514      2516      2519
      2516      2519      2521      2522      2516      2519      2521      2523
      2517      2516      2519      2520      2517      2516      2519      2521
      2518      2516      2519      2520      2518      2516      2519      2521
      2519      2521      2523      2524      2519      2521      2523      2525
      2519      2521      2523      2526      2520      2519      2521      2522
      2520      2519      2521      2523      2521      2523      2526      2527
      2521      2523      2526      2528      2521      2523      2526      2529
      2522      2521      2523      2524      2522      2521      2523      2525
      2522      2521      2523      2526      2523      2526      2529      2530
      2523      2526      2529      2531      2523      2526      2529      2532
      2524      2523      2526      2527      2524      2523      2526      2528
      2524      2523      2526      2529      2525      2523      2526      2527
      2525      2523      2526      2528      2525      2523      2526      2529
      2526      2529      2532      2533      2526      2529      2532      2534
      2526      2529      2532      2535      2527      2526      2529      2530
      2527      2526      2529      2531      2527      2526      2529      2532
      2528      2526      2529      2530      2528      2526      2529      2531
      2528      2526      2529      2532      2529      2532      2535      2536
      2529      2532      2535      2537      2529      2532      2535      2538
      2530      2529      2532      2533      2530      2529      2532      2534
      2530      2529      2532      2535      2531      2529      2532      2533
      2531      2529      2532      2534      2531      2529      2532      2535
      2533      2532      2535      2536      2533      2532      2535      2537
      2533      2532      2535      2538      2534      2532      2535      2536
      2534      2532      2535      2537      2534      2532      2535      2538
      2539      2542      2545      2546      2539      2542      2545      2547
      2539      2542      2545      2548      2540      2539      2542      2543
      2540      2539      2542      2544      2540      2539      2542      2545
      2541      2539      2542      2543      2541      2539      2542      2544
      2541      2539      2542      2545      2542      2545      2548      2549
      2542      2545      2548      2550      2542      2545      2548      2551
      2543      2542      2545      2546      2543      2542      2545      2547
      2543      2542      2545      2548      2544      2542      2545      2546
      2544      2542      2545      2547      2544      2542      2545      2548
      2545      2548      2551      2552      2545      2548      2551      2553
      2545      2548      2551      2554      2546      2545      2548      2549
      2546      2545      2548      2550      2546      2545      2548      2551
      2547      2545      2548      2549      2547      2545      2548      2550
      2547      2545      2548      2551      2548      2551      2554      2555
      2548      2551      2554      2556      2548      2551      2554      2557
      2549      2548      2551      2552      2549      2548      2551      2553
      2549      2548      2551      2554      2550      2548      2551      2552
      2550      2548      2551      2553      2550      2548      2551      2554
      2551      2554      2557      2558      2551      2554      2557      2559
      2551      2554      2557      2560      2552      2551      2554      2555
      2552      2551      2554      2556      2552      2551      2554      2557
      2553      2551      2554      2555      2553      2551      2554      2556
      2553      2551      2554      2557      2554      2557      2560      2561
      2554      2557      2560      2562      2554      2557      2560      2563
      2555      2554      2557      2558      2555      2554      2557      2559
      2555      2554      2557      2560      2556      2554      2557      2558
      2556      2554      2557      2559      2556      2554      2557      2560
      2557      2560      2563      2564      2557      2560      2563      2565
      2557      2560      2563      2566      2558      2557      2560      2561
      2558      2557      2560      2562      2558      2557      2560      2563
      2559      2557      2560      2561      2559      2557      2560      2562
      2559      2557      2560      2563      2560      2563      2566      2567
      2560      2563      2566      2568      2560      2563      2566      2569
      2561      2560      2563      2564      2561      2560      2563      2565
      2561      2560      2563      2566      2562      2560      2563      2564
      2562      2560      2563      2565      2562      2560      2563      2566
      2563      2566      2569      2570      2563      2566      2569      2571
      2563      2566      2569      2572      2564      2563      2566      2567
      2564      2563      2566      2568      2564      2563      2566      2569
      2565      2563      2566      2567      2565      2563      2566      2568
      2565      2563      2566      2569      2566      2569      2572      2573
      2566      2569      2572      2574      2566      2569      2572      2575
      2567      2566      2569      2570      2567      2566      2569      2571
      2567      2566      2569      2572      2568      2566      2569      2570
      2568      2566      2569      2571      2568      2566      2569      2572
      2569      2572      2575      2576      2569      2572      2575      2577
      2569      2572      2575      2578      2570      2569      2572      2573
      2570      2569      2572      2574      2570      2569      2572      2575
      2571      2569      2572      2573      2571      2569      2572      2574
      2571      2569      2572      2575      2572      2575      2578      2579
      2572      2575      2578      2580      2572      2575      2578      2581
      2573      2572      2575      2576      2573      2572      2575      2577
      2573      2572      2575      2578      2574      2572      2575      2576
      2574      2572      2575      2577      2574      2572      2575      2578
      2575      2578      2581      2582      2575      2578      2581      2583
      2575      2578      2581      2584      2576      2575      2578      2579
      2576      2575      2578      2580      2576      2575      2578      2581
      2577      2575      2578      2579      2577      2575      2578      2580
      2577      2575      2578      2581      2578      2581      2584      2585
      2578      2581      2584      2586      2578      2581      2584      2587
      2579      2578      2581      2582      2579      2578      2581      2583
      2579      2578      2581      2584      2580      2578      2581      2582
      2580      2578      2581      2583      2580      2578      2581      2584
      2582      2581      2584      2585      2582      2581      2584      2586
      2582      2581      2584      2587      2583      2581      2584      2585
      2583      2581      2584      2586      2583      2581      2584      2587
      2588      2592      2594      2595      2588      2592      2594      2596
      2588      2592      2597      2598      2588      2592      2597      2599
      2588      2592      2597      2603      2589      2588      2592      2593
      2589      2588      2592      2594      2589      2588      2592      2597
      2590      2588      2592      2593      2590      2588      2592      2594
      2590      2588      2592      2597      2591      2588      2592      2593
      2591      2588      2592      2594      2591      2588      2592      2597
      2592      2597      2603      2600      2593      2592      2594      2595
      2593      2592      2594      2596      2593      2592      2597      2598
      2593      2592      2597      2599      2593      2592      2597      2603
      2594      2592      2597      2598      2594      2592      2597      2599
      2594      2592      2597      2603      2595      2594      2592      2597
      2596      2594      2592      2597      2597      2603      2600      2601
      2597      2603      2600      2602      2597      2603      2600      2604
      2598      2597      2603      2600      2599      2597      2603      2600
      2600      2604      2605      2606      2600      2604      2605      2607
      2600      2604      2605      2608      2601      2600      2604      2605
      2602      2600      2604      2605      2603      2600      2604      2605
      2604      2605      2608      2609      2604      2605      2608      2610
      2604      2605      2608      2616      2605      2608      2610      2611
      2605      2608      2616      2617      2605      2608      2616      2618
      2605      2608      2616      2619      2606      2605      2608      2609
      2606      2605      2608      2610      2606      2605      2608      2616
      2607      2605      2608      2609      2607      2605      2608      2610
      2607      2605      2608      2616      2608      2610      2611      2612
      2608      2610      2611      2613      2608      2616      2619      2620
      2609      2608      2610      2611      2609      2608      2616      2617
      2609      2608      2616      2618      2609      2608      2616      2619
      2610      2608      2616      2617      2610      2608      2616      2618
      2610      2608      2616      2619      2610      2611      2613      2614
      2610      2611      2613      2615      2610      2611      2613      2625
      2611      2610      2608      2616      2611      2613      2625      2626
      2611      2613      2625      2627      2611      2613      2625      2628
      2612      2611      2613      2614      2612      2611      2613      2615
      2612      2611      2613      2625      2613      2625      2628      2629
      2613      2625      2628      2630      2613      2625      2628      2631
      2614      2613      2625      2626      2614      2613      2625      2627
      2614      2613      2625      2628      2615      2613      2625      2626
      2615      2613      2625      2627      2615      2613      2625      2628
      2616      2619      2620      2621      2616      2619      2620      2622
      2617      2616      2619      2620      2618      2616      2619      2620
      2619      2620      2622      2623      2619      2620      2622      2624
      2619      2620      2622      2672      2620      2622      2672      2673
      2620      2622      2672      2674      2620      2622      2672      2675
      2621      2620      2622      2623      2621      2620      2622      2624
      2621      2620      2622      2672      2622      2672      2675      2676
      2622      2672      2675      2677      2622      2672      2675      2678
      2623      2622      2672      2673      2623      2622      2672      2674
      2623      2622      2672      2675      2624      2622      2672      2673
      2624      2622      2672      2674      2624      2622      2672      2675
      2625      2628      2631      2632      2625      2628      2631      2633
      2626      2625      2628      2629      2626      2625      2628      2630
      2626      2625      2628      2631      2627      2625      2628      2629
      2627      2625      2628      2630      2627      2625      2628      2631
      2628      2631      2633      2634      2628      2631      2633      2635
      2629      2628      2631      2632      2629      2628      2631      2633
      2630      2628      2631      2632      2630      2628      2631      2633
      2631      2633      2635      2636      2631      2633      2635      2637
      2631      2633      2635      2638      2632      2631      2633      2634
      2632      2631      2633      2635      2633      2635      2638      2639
      2633      2635      2638      2640      2634      2633      2635      2636
      2634      2633      2635      2637      2634      2633      2635      2638
      2635      2638      2640      2641      2635      2638      2640      2642
      2636      2635      2638      2639      2636      2635      2638      2640
      2637      2635      2638      2639      2637      2635      2638      2640
      2638      2640      2642      2643      2638      2640      2642      2644
      2638      2640      2642      2645      2639      2638      2640      2641
      2639      2638      2640      2642      2640      2642      2645      2646
      2640      2642      2645      2647      2641      2640      2642      2643
      2641      2640      2642      2644      2641      2640      2642      2645
      2642      2645      2647      2648      2642      2645      2647      2649
      2643      2642      2645      2646      2643      2642      2645      2647
      2644      2642      2645      2646      2644      2642      2645      2647
      2645      2647      2649      2650      2645      2647      2649      2651
      2645      2647      2649      2652      2646      2645      2647      2648
      2646      2645      2647      2649      2647      2649      2652      2653
      2647      2649      2652      2654      2648      2647      2649      2650
      2648      2647      2649      2651      2648      2647      2649      2652
      2649      2652      2654      2655      2649      2652      2654      2656
      2650      2649      2652      2653      2650      2649      2652      2654
      2651      2649      2652      2653      2651      2649      2652      2654
      2652      2654      2656      2657      2652      2654      2656      2658
      2652      2654      2656      2659      2653      2652      2654      2655
      2653      2652      2654      2656      2654      2656      2659      2660
      2654      2656      2659      2661      2654      2656      2659      2662
      2655      2654      2656      2657      2655      2654      2656      2658
      2655      2654      2656      2659      2656      2659      2662      2663
      2656      2659      2662      2664      2656      2659      2662      2665
      2657      2656      2659      2660      2657      2656      2659      2661
      2657      2656      2659      2662      2658      2656      2659      2660
      2658      2656      2659      2661      2658      2656      2659      2662
      2659      2662      2665      2666      2659      2662      2665      2667
      2659      2662      2665      2668      2660      2659      2662      2663
      2660      2659      2662      2664      2660      2659      2662      2665
      2661      2659      2662      2663      2661      2659      2662      2664
      2661      2659      2662      2665      2662      2665      2668      2669
      2662      2665      2668      2670      2662      2665      2668      2671
      2663      2662      2665      2666      2663      2662      2665      2667
      2663      2662      2665      2668      2664      2662      2665      2666
      2664      2662      2665      2667      2664      2662      2665      2668
      2666      2665      2668      2669      2666      2665      2668      2670
      2666      2665      2668      2671      2667      2665      2668      2669
      2667      2665      2668      2670      2667      2665      2668      2671
      2672      2675      2678      2679      2672      2675      2678      2680
      2672      2675      2678      2681      2673      2672      2675      2676
      2673      2672      2675      2677      2673      2672      2675      2678
      2674      2672      2675      2676      2674      2672      2675      2677
      2674      2672      2675      2678      2675      2678      2681      2682
      2675      2678      2681      2683      2675      2678      2681      2684
      2676      2675      2678      2679      2676      2675      2678      2680
      2676      2675      2678      2681      2677      2675      2678      2679
      2677      2675      2678      2680      2677      2675      2678      2681
      2678      2681      2684      2685      2678      2681      2684      2686
      2678      2681      2684      2687      2679      2678      2681      2682
      2679      2678      2681      2683      2679      2678      2681      2684
      2680      2678      2681      2682      2680      2678      2681      2683
      2680      2678      2681      2684      2681      2684      2687      2688
      2681      2684      2687      2689      2681      2684      2687      2690
      2682      2681      2684      2685      2682      2681      2684      2686
      2682      2681      2684      2687      2683      2681      2684      2685
      2683      2681      2684      2686      2683      2681      2684      2687
      2684      2687      2690      2691      2684      2687      2690      2692
      2684      2687      2690      2693      2685      2684      2687      2688
      2685      2684      2687      2689      2685      2684      2687      2690
      2686      2684      2687      2688      2686      2684      2687      2689
      2686      2684      2687      2690      2687      2690      2693      2694
      2687      2690      2693      2695      2687      2690      2693      2696
      2688      2687      2690      2691      2688      2687      2690      2692
      2688      2687      2690      2693      2689      2687      2690      2691
      2689      2687      2690      2692      2689      2687      2690      2693
      2690      2693      2696      2697      2690      2693      2696      2698
      2690      2693      2696      2699      2691      2690      2693      2694
      2691      2690      2693      2695      2691      2690      2693      2696
      2692      2690      2693      2694      2692      2690      2693      2695
      2692      2690      2693      2696      2693      2696      2699      2700
      2693      2696      2699      2701      2693      2696      2699      2702
      2694      2693      2696      2697      2694      2693      2696      2698
      2694      2693      2696      2699      2695      2693      2696      2697
      2695      2693      2696      2698      2695      2693      2696      2699
      2696      2699      2702      2703      2696      2699      2702      2704
      2696      2699      2702      2705      2697      2696      2699      2700
      2697      2696      2699      2701      2697      2696      2699      2702
      2698      2696      2699      2700      2698      2696      2699      2701
      2698      2696      2699      2702      2699      2702      2705      2706
      2699      2702      2705      2707      2699      2702      2705      2708
      2700      2699      2702      2703      2700      2699      2702      2704
      2700      2699      2702      2705      2701      2699      2702      2703
      2701      2699      2702      2704      2701      2699      2702      2705
      2702      2705      2708      2709      2702      2705      2708      2710
      2702      2705      2708      2711      2703      2702      2705      2706
      2703      2702      2705      2707      2703      2702      2705      2708
      2704      2702      2705      2706      2704      2702      2705      2707
      2704      2702      2705      2708      2705      2708      2711      2712
      2705      2708      2711      2713      2705      2708      2711      2714
      2706      2705      2708      2709      2706      2705      2708      2710
      2706      2705      2708      2711      2707      2705      2708      2709
      2707      2705      2708      2710      2707      2705      2708      2711
      2708      2711      2714      2715      2708      2711      2714      2716
      2708      2711      2714      2717      2709      2708      2711      2712
      2709      2708      2711      2713      2709      2708      2711      2714
      2710      2708      2711      2712      2710      2708      2711      2713
      2710      2708      2711      2714      2711      2714      2717      2718
      2711      2714      2717      2719      2711      2714      2717      2720
      2712      2711      2714      2715      2712      2711      2714      2716
      2712      2711      2714      2717      2713      2711      2714      2715
      2713      2711      2714      2716      2713      2711      2714      2717
      2715      2714      2717      2718      2715      2714      2717      2719
      2715      2714      2717      2720      2716      2714      2717      2718
      2716      2714      2717      2719      2716      2714      2717      2720
      2721      2725      2727      2728      2721      2725      2727      2729
      2721      2725      2730      2731      2721      2725      2730      2732
      2721      2725      2730      2736      2722      2721      2725      2726
      2722      2721      2725      2727      2722      2721      2725      2730
      2723      2721      2725      2726      2723      2721      2725      2727
      2723      2721      2725      2730      2724      2721      2725      2726
      2724      2721      2725      2727      2724      2721      2725      2730
      2725      2730      2736      2733      2726      2725      2727      2728
      2726      2725      2727      2729      2726      2725      2730      2731
      2726      2725      2730      2732      2726      2725      2730      2736
      2727      2725      2730      2731      2727      2725      2730      2732
      2727      2725      2730      2736      2728      2727      2725      2730
      2729      2727      2725      2730      2730      2736      2733      2734
      2730      2736      2733      2735      2730      2736      2733      2737
      2731      2730      2736      2733      2732      2730      2736      2733
      2733      2737      2738      2739      2733      2737      2738      2740
      2733      2737      2738      2741      2734      2733      2737      2738
      2735      2733      2737      2738      2736      2733      2737      2738
      2737      2738      2741      2742      2737      2738      2741      2743
      2737      2738      2741      2749      2738      2741      2743      2744
      2738      2741      2749      2750      2738      2741      2749      2751
      2738      2741      2749      2752      2739      2738      2741      2742
      2739      2738      2741      2743      2739      2738      2741      2749
      2740      2738      2741      2742      2740      2738      2741      2743
      2740      2738      2741      2749      2741      2743      2744      2745
      2741      2743      2744      2746      2741      2749      2752      2753
      2742      2741      2743      2744      2742      2741      2749      2750
      2742      2741      2749      2751      2742      2741      2749      2752
      2743      2741      2749      2750      2743      2741      2749      2751
      2743      2741      2749      2752      2743      2744      2746      2747
      2743      2744      2746      2748      2743      2744      2746      2758
      2744      2743      2741      2749      2744      2746      2758      2759
      2744      2746      2758      2760      2744      2746      2758      2761
      2745      2744      2746      2747      2745      2744      2746      2748
      2745      2744      2746      2758      2746      2758      2761      2762
      2746      2758      2761      2763      2746      2758      2761      2764
      2747      2746      2758      2759      2747      2746      2758      2760
      2747      2746      2758      2761      2748      2746      2758      2759
      2748      2746      2758      2760      2748      2746      2758      2761
      2749      2752      2753      2754      2749      2752      2753      2755
      2750      2749      2752      2753      2751      2749      2752      2753
      2752      2753      2755      2756      2752      2753      2755      2757
      2752      2753      2755      2805      2753      2755      2805      2806
      2753      2755      2805      2807      2753      2755      2805      2808
      2754      2753      2755      2756      2754      2753      2755      2757
      2754      2753      2755      2805      2755      2805      2808      2809
      2755      2805      2808      2810      2755      2805      2808      2811
      2756      2755      2805      2806      2756      2755      2805      2807
      2756      2755      2805      2808      2757      2755      2805      2806
      2757      2755      2805      2807      2757      2755      2805      2808
      2758      2761      2764      2765      2758      2761      2764      2766
      2759      2758      2761      2762      2759      2758      2761      2763
      2759      2758      2761      2764      2760      2758      2761      2762
      2760      2758      2761      2763      2760      2758      2761      2764
      2761      2764      2766      2767      2761      2764      2766      2768
      2762      2761      2764      2765      2762      2761      2764      2766
      2763      2761      2764      2765      2763      2761      2764      2766
      2764      2766      2768      2769      2764      2766      2768      2770
      2764      2766      2768      2771      2765      2764      2766      2767
      2765      2764      2766      2768      2766      2768      2771      2772
      2766      2768      2771      2773      2767      2766      2768      2769
      2767      2766      2768      2770      2767      2766      2768      2771
      2768      2771      2773      2774      2768      2771      2773      2775
      2769      2768      2771      2772      2769      2768      2771      2773
      2770      2768      2771      2772      2770      2768      2771      2773
      2771      2773      2775      2776      2771      2773      2775      2777
      2771      2773      2775      2778      2772      2771      2773      2774
      2772      2771      2773      2775      2773      2775      2778      2779
      2773      2775      2778      2780      2774      2773      2775      2776
      2774      2773      2775      2777      2774      2773      2775      2778
      2775      2778      2780      2781      2775      2778      2780      2782
      2776      2775      2778      2779      2776      2775      2778      2780
      2777      2775      2778      2779      2777      2775      2778      2780
      2778      2780      2782      2783      2778      2780      2782      2784
      2778      2780      2782      2785      2779      2778      2780      2781
      2779      2778      2780      2782      2780      2782      2785      2786
      2780      2782      2785      2787      2781      2780      2782      2783
      2781      2780      2782      2784      2781      2780      2782      2785
      2782      2785      2787      2788      2782      2785      2787      2789
      2783      2782      2785      2786      2783      2782      2785      2787
      2784      2782      2785      2786      2784      2782      2785      2787
      2785      2787      2789      2790      2785      2787      2789      2791
      2785      2787      2789      2792      2786      2785      2787      2788
      2786      2785      2787      2789      2787      2789      2792      2793
      2787      2789      2792      2794      2787      2789      2792      2795
      2788      2787      2789      2790      2788      2787      2789      2791
      2788      2787      2789      2792      2789      2792      2795      2796
      2789      2792      2795      2797      2789      2792      2795      2798
      2790      2789      2792      2793      2790      2789      2792      2794
      2790      2789      2792      2795      2791      2789      2792      2793
      2791      2789      2792      2794      2791      2789      2792      2795
      2792      2795      2798      2799      2792      2795      2798      2800
      2792      2795      2798      2801      2793      2792      2795      2796
      2793      2792      2795      2797      2793      2792      2795      2798
      2794      2792      2795      2796      2794      2792      2795      2797
      2794      2792      2795      2798      2795      2798      2801      2802
      2795      2798      2801      2803      2795      2798      2801      2804
      2796      2795      2798      2799      2796      2795      2798      2800
      2796      2795      2798      2801      2797      2795      2798      2799
      2797      2795      2798      2800      2797      2795      2798      2801
      2799      2798      2801      2802      2799      2798      2801      2803
      2799      2798      2801      2804      2800      2798      2801      2802
      2800      2798      2801      2803      2800      2798      2801      2804
      2805      2808      2811      2812      2805      2808      2811      2813
      2805      2808      2811      2814      2806      2805      2808      2809
      2806      2805      2808      2810      2806      2805      2808      2811
      2807      2805      2808      2809      2807      2805      2808      2810
      2807      2805      2808      2811      2808      2811      2814      2815
      2808      2811      2814      2816      2808      2811      2814      2817
      2809      2808      2811      2812      2809      2808      2811      2813
      2809      2808      2811      2814      2810      2808      2811      2812
      2810      2808      2811      2813      2810      2808      2811      2814
      2811      2814      2817      2818      2811      2814      2817      2819
      2811      2814      2817      2820      2812      2811      2814      2815
      2812      2811      2814      2816      2812      2811      2814      2817
      2813      2811      2814      2815      2813      2811      2814      2816
      2813      2811      2814      2817      2814      2817      2820      2821
      2814      2817      2820      2822      2814      2817      2820      2823
      2815      2814      2817      2818      2815      2814      2817      2819
      2815      2814      2817      2820      2816      2814      2817      2818
      2816      2814      2817      2819      2816      2814      2817      2820
      2817      2820      2823      2824      2817      2820      2823      2825
      2817      2820      2823      2826      2818      2817      2820      2821
      2818      2817      2820      2822      2818      2817      2820      2823
      2819      2817      2820      2821      2819      2817      2820      2822
      2819      2817      2820      2823      2820      2823      2826      2827
      2820      2823      2826      2828      2820      2823      2826      2829
      2821      2820      2823      2824      2821      2820      2823      2825
      2821      2820      2823      2826      2822      2820      2823      2824
      2822      2820      2823      2825      2822      2820      2823      2826
      2823      2826      2829      2830      2823      2826      2829      2831
      2823      2826      2829      2832      2824      2823      2826      2827
      2824      2823      2826      2828      2824      2823      2826      2829
      2825      2823      2826      2827      2825      2823      2826      2828
      2825      2823      2826      2829      2826      2829      2832      2833
      2826      2829      2832      2834      2826      2829      2832      2835
      2827      2826      2829      2830      2827      2826      2829      2831
      2827      2826      2829      2832      2828      2826      2829      2830
      2828      2826      2829      2831      2828      2826      2829      2832
      2829      2832      2835      2836      2829      2832      2835      2837
      2829      2832      2835      2838      2830      2829      2832      2833
      2830      2829      2832      2834      2830      2829      2832      2835
      2831      2829      2832      2833      2831      2829      2832      2834
      2831      2829      2832      2835      2832      2835      2838      2839
      2832      2835      2838      2840      2832      2835      2838      2841
      2833      2832      2835      2836      2833      2832      2835      2837
      2833      2832      2835      2838      2834      2832      2835      2836
      2834      2832      2835      2837      2834      2832      2835      2838
      2835      2838      2841      2842      2835      2838      2841      2843
      2835      2838      2841      2844      2836      2835      2838      2839
      2836      2835      2838      2840      2836      2835      2838      2841
      2837      2835      2838      2839      2837      2835      2838      2840
      2837      2835      2838      2841      2838      2841      2844      2845
      2838      2841      2844      2846      2838      2841      2844      2847
      2839      2838      2841      2842      2839      2838      2841      2843
      2839      2838      2841      2844      2840      2838      2841      2842
      2840      2838      2841      2843      2840      2838      2841      2844
      2841      2844      2847      2848      2841      2844      2847      2849
      2841      2844      2847      2850      2842      2841      2844      2845
      2842      2841      2844      2846      2842      2841      2844      2847
      2843      2841      2844      2845      2843      2841      2844      2846
      2843      2841      2844      2847      2844      2847      2850      2851
      2844      2847      2850      2852      2844      2847      2850      2853
      2845      2844      2847      2848      2845      2844      2847      2849
      2845      2844      2847      2850      2846      2844      2847      2848
      2846      2844      2847      2849      2846      2844      2847      2850
      2848      2847      2850      2851      2848      2847      2850      2852
      2848      2847      2850      2853      2849      2847      2850      2851
      2849      2847      2850      2852      2849      2847      2850      2853
      2854      2858      2861      2862      2854      2858      2861      2863
      2854      2858      2861      2867      2855      2854      2858      2859
      2855      2854      2858      2860      2855      2854      2858      2861
      2856      2854      2858      2859      2856      2854      2858      2860
      2856      2854      2858      2861      2857      2854      2858      2859
      2857      2854      2858      2860      2857      2854      2858      2861
      2858      2861      2867      2864      2859      2858      2861      2862
      2859      2858      2861      2863      2859      2858      2861      2867
      2860      2858      2861      2862      2860      2858      2861      2863
      2860      2858      2861      2867      2861      2867      2864      2865
      2861      2867      2864      2866      2861      2867      2864      2868
      2862      2861      2867      2864      2863      2861      2867      2864
      2864      2868      2869      2870      2864      2868      2869      2871
      2864      2868      2869      2872      2865      2864      2868      2869
      2866      2864      2868      2869      2867      2864      2868      2869
      2868      2869      2872      2873      2868      2869      2872      2874
      2868      2869      2872      2880      2869      2872      2874      2875
      2869      2872      2880      2881      2869      2872      2880      2882
      2869      2872      2880      2883      2870      2869      2872      2873
      2870      2869      2872      2874      2870      2869      2872      2880
      2871      2869      2872      2873      2871      2869      2872      2874
      2871      2869      2872      2880      2872      2874      2875      2876
      2872      2874      2875      2877      2872      2880      2883      2884
      2873      2872      2874      2875      2873      2872      2880      2881
      2873      2872      2880      2882      2873      2872      2880      2883
      2874      2872      2880      2881      2874      2872      2880      2882
      2874      2872      2880      2883      2874      2875      2877      2878
      2874      2875      2877      2879      2874      2875      2877      2889
      2875      2874      2872      2880      2875      2877      2889      2890
      2875      2877      2889      2891      2875      2877      2889      2892
      2876      2875      2877      2878      2876      2875      2877      2879
      2876      2875      2877      2889      2877      2889      2892      2893
      2877      2889      2892      2894      2877      2889      2892      2895
      2878      2877      2889      2890      2878      2877      2889      2891
      2878      2877      2889      2892      2879      2877      2889      2890
      2879      2877      2889      2891      2879      2877      2889      2892
      2880      2883      2884      2885      2880      2883      2884      2886
      2881      2880      2883      2884      2882      2880      2883      2884
      2883      2884      2886      2887      2883      2884      2886      2888
      2883      2884      2886      2936      2884      2886      2936      2937
      2884      2886      2936      2938      2884      2886      2936      2939
      2885      2884      2886      2887      2885      2884      2886      2888
      2885      2884      2886      2936      2886      2936      2939      2940
      2886      2936      2939      2941      2886      2936      2939      2942
      2887      2886      2936      2937      2887      2886      2936      2938
      2887      2886      2936      2939      2888      2886      2936      2937
      2888      2886      2936      2938      2888      2886      2936      2939
      2889      2892      2895      2896      2889      2892      2895      2897
      2890      2889      2892      2893      2890      2889      2892      2894
      2890      2889      2892      2895      2891      2889      2892      2893
      2891      2889      2892      2894      2891      2889      2892      2895
      2892      2895      2897      2898      2892      2895      2897      2899
      2893      2892      2895      2896      2893      2892      2895      2897
      2894      2892      2895      2896      2894      2892      2895      2897
      2895      2897      2899      2900      2895      2897      2899      2901
      2895      2897      2899      2902      2896      2895      2897      2898
      2896      2895      2897      2899      2897      2899      2902      2903
      2897      2899      2902      2904      2898      2897      2899      2900
      2898      2897      2899      2901      2898      2897      2899      2902
      2899      2902      2904      2905      2899      2902      2904      2906
      2900      2899      2902      2903      2900      2899      2902      2904
      2901      2899      2902      2903      2901      2899      2902      2904
      2902      2904      2906      2907      2902      2904      2906      2908
      2902      2904      2906      2909      2903      2902      2904      2905
      2903      2902      2904      2906      2904      2906      2909      2910
      2904      2906      2909      2911      2905      2904      2906      2907
      2905      2904      2906      2908      2905      2904      2906      2909
      2906      2909      2911      2912      2906      2909      2911      2913
      2907      2906      2909      2910      2907      2906      2909      2911
      2908      2906      2909      2910      2908      2906      2909      2911
      2909      2911      2913      2914      2909      2911      2913      2915
      2909      2911      2913      2916      2910      2909      2911      2912
      2910      2909      2911      2913      2911      2913      2916      2917
      2911      2913      2916      2918      2912      2911      2913      2914
      2912      2911      2913      2915      2912      2911      2913      2916
      2913      2916      2918      2919      2913      2916      2918      2920
      2914      2913      2916      2917      2914      2913      2916      2918
      2915      2913      2916      2917      2915      2913      2916      2918
      2916      2918      2920      2921      2916      2918      2920      2922
      2916      2918      2920      2923      2917      2916      2918      2919
      2917      2916      2918      2920      2918      2920      2923      2924
      2918      2920      2923      2925      2918      2920      2923      2926
      2919      2918      2920      2921      2919      2918      2920      2922
      2919      2918      2920      2923      2920      2923      2926      2927
      2920      2923      2926      2928      2920      2923      2926      2929
      2921      2920      2923      2924      2921      2920      2923      2925
      2921      2920      2923      2926      2922      2920      2923      2924
      2922      2920      2923      2925      2922      2920      2923      2926
      2923      2926      2929      2930      2923      2926      2929      2931
      2923      2926      2929      2932      2924      2923      2926      2927
      2924      2923      2926      2928      2924      2923      2926      2929
      2925      2923      2926      2927      2925      2923      2926      2928
      2925      2923      2926      2929      2926      2929      2932      2933
      2926      2929      2932      2934      2926      2929      2932      2935
      2927      2926      2929      2930      2927      2926      2929      2931
      2927      2926      2929      2932      2928      2926      2929      2930
      2928      2926      2929      2931      2928      2926      2929      2932
      2930      2929      2932      2933      2930      2929      2932      2934
      2930      2929      2932      2935      2931      2929      2932      2933
      2931      2929      2932      2934      2931      2929      2932      2935
      2936      2939      2942      2943      2936      2939      2942      2944
      2936      2939      2942      2945      2937      2936      2939      2940
      2937      2936      2939      2941      2937      2936      2939      2942
      2938      2936      2939      2940      2938      2936      2939      2941
      2938      2936      2939      2942      2939      2942      2945      2946
      2939      2942      2945      2947      2939      2942      2945      2948
      2940      2939      2942      2943      2940      2939      2942      2944
      2940      2939      2942      2945      2941      2939      2942      2943
      2941      2939      2942      2944      2941      2939      2942      2945
      2942      2945      2948      2949      2942      2945      2948      2950
      2942      2945      2948      2951      2943      2942      2945      2946
      2943      2942      2945      2947      2943      2942      2945      2948
      2944      2942      2945      2946      2944      2942      2945      2947
      2944      2942      2945      2948      2945      2948      2951      2952
      2945      2948      2951      2953      2945      2948      2951      2954
      2946      2945      2948      2949      2946      2945      2948      2950
      2946      2945      2948      2951      2947      2945      2948      2949
      2947      2945      2948      2950      2947      2945      2948      2951
      2948      2951      2954      2955      2948      2951      2954      2956
      2948      2951      2954      2957      2949      2948      2951      2952
      2949      2948      2951      2953      2949      2948      2951      2954
      2950      2948      2951      2952      2950      2948      2951      2953
      2950      2948      2951      2954      2951      2954      2957      2958
      2951      2954      2957      2959      2951      2954      2957      2960
      2952      2951      2954      2955      2952      2951      2954      2956
      2952      2951      2954      2957      2953      2951      2954      2955
      2953      2951      2954      2956      2953      2951      2954      2957
      2954      2957      2960      2961      2954      2957      2960      2962
      2954      2957      2960      2963      2955      2954      2957      2958
      2955      2954      2957      2959      2955      2954      2957      2960
      2956      2954      2957      2958      2956      2954      2957      2959
      2956      2954      2957      2960      2957      2960      2963      2964
      2957      2960      2963      2965      2957      2960      2963      2966
      2958      2957      2960      2961      2958      2957      2960      2962
      2958      2957      2960      2963      2959      2957      2960      2961
      2959      2957      2960      2962      2959      2957      2960      2963
      2960      2963      2966      2967      2960      2963      2966      2968
      2960      2963      2966      2969      2961      2960      2963      2964
      2961      2960      2963      2965      2961      2960      2963      2966
      2962      2960      2963      2964      2962      2960      2963      2965
      2962      2960      2963      2966      2963      2966      2969      2970
      2963      2966      2969      2971      2963      2966      2969      2972
      2964      2963      2966      2967      2964      2963      2966      2968
      2964      2963      2966      2969      2965      2963      2966      2967
      2965      2963      2966      2968      2965      2963      2966      2969
      2966      2969      2972      2973      2966      2969      2972      2974
      2966      2969      2972      2975      2967      2966      2969      2970
      2967      2966      2969      2971      2967      2966      2969      2972
      2968      2966      2969      2970      2968      2966      2969      2971
      2968      2966      2969      2972      2969      2972      2975      2976
      2969      2972      2975      2977      2969      2972      2975      2978
      2970      2969      2972      2973      2970      2969      2972      2974
      2970      2969      2972      2975      2971      2969      2972      2973
      2971      2969      2972      2974      2971      2969      2972      2975
      2972      2975      2978      2979      2972      2975      2978      2980
      2972      2975      2978      2981      2973      2972      2975      2976
      2973      2972      2975      2977      2973      2972      2975      2978
      2974      2972      2975      2976      2974      2972      2975      2977
      2974      2972      2975      2978      2975      2978      2981      2982
      2975      2978      2981      2983      2975      2978      2981      2984
      2976      2975      2978      2979      2976      2975      2978      2980
      2976      2975      2978      2981      2977      2975      2978      2979
      2977      2975      2978      2980      2977      2975      2978      2981
      2979      2978      2981      2982      2979      2978      2981      2983
      2979      2978      2981      2984      2980      2978      2981      2982
      2980      2978      2981      2983      2980      2978      2981      2984
      2985      2989      2992      2993      2985      2989      2992      2994
      2985      2989      2992      2998      2986      2985      2989      2990
      2986      2985      2989      2991      2986      2985      2989      2992
      2987      2985      2989      2990      2987      2985      2989      2991
      2987      2985      2989      2992      2988      2985      2989      2990
      2988      2985      2989      2991      2988      2985      2989      2992
      2989      2992      2998      2995      2990      2989      2992      2993
      2990      2989      2992      2994      2990      2989      2992      2998
      2991      2989      2992      2993      2991      2989      2992      2994
      2991      2989      2992      2998      2992      2998      2995      2996
      2992      2998      2995      2997      2992      2998      2995      2999
      2993      2992      2998      2995      2994      2992      2998      2995
      2995      2999      3000      3001      2995      2999      3000      3002
      2995      2999      3000      3003      2996      2995      2999      3000
      2997      2995      2999      3000      2998      2995      2999      3000
      2999      3000      3003      3004      2999      3000      3003      3005
      2999      3000      3003      3011      3000      3003      3005      3006
      3000      3003      3011      3012      3000      3003      3011      3013
      3000      3003      3011      3014      3001      3000      3003      3004
      3001      3000      3003      3005      3001      3000      3003      3011
      3002      3000      3003      3004      3002      3000      3003      3005
      3002      3000      3003      3011      3003      3005      3006      3007
      3003      3005      3006      3008      3003      3011      3014      3015
      3004      3003      3005      3006      3004      3003      3011      3012
      3004      3003      3011      3013      3004      3003      3011      3014
      3005      3003      3011      3012      3005      3003      3011      3013
      3005      3003      3011      3014      3005      3006      3008      3009
      3005      3006      3008      3010      3005      3006      3008      3020
      3006      3005      3003      3011      3006      3008      3020      3021
      3006      3008      3020      3022      3006      3008      3020      3023
      3007      3006      3008      3009      3007      3006      3008      3010
      3007      3006      3008      3020      3008      3020      3023      3024
      3008      3020      3023      3025      3008      3020      3023      3026
      3009      3008      3020      3021      3009      3008      3020      3022
      3009      3008      3020      3023      3010      3008      3020      3021
      3010      3008      3020      3022      3010      3008      3020      3023
      3011      3014      3015      3016      3011      3014      3015      3017
      3012      3011      3014      3015      3013      3011      3014      3015
      3014      3015      3017      3018      3014      3015      3017      3019
      3014      3015      3017      3067      3015      3017      3067      3068
      3015      3017      3067      3069      3015      3017      3067      3070
      3016      3015      3017      3018      3016      3015      3017      3019
      3016      3015      3017      3067      3017      3067      3070      3071
      3017      3067      3070      3072      3017      3067      3070      3073
      3018      3017      3067      3068      3018      3017      3067      3069
      3018      3017      3067      3070      3019      3017      3067      3068
      3019      3017      3067      3069      3019      3017      3067      3070
      3020      3023      3026      3027      3020      3023      3026      3028
      3021      3020      3023      3024      3021      3020      3023      3025
      3021      3020      3023      3026      3022      3020      3023      3024
      3022      3020      3023      3025      3022      3020      3023      3026
      3023      3026      3028      3029      3023      3026      3028      3030
      3024      3023      3026      3027      3024      3023      3026      3028
      3025      3023      3026      3027      3025      3023      3026      3028
      3026      3028      3030      3031      3026      3028      3030      3032
      3026      3028      3030      3033      3027      3026      3028      3029
      3027      3026      3028      3030      3028      3030      3033      3034
      3028      3030      3033      3035      3029      3028      3030      3031
      3029      3028      3030      3032      3029      3028      3030      3033
      3030      3033      3035      3036      3030      3033      3035      3037
      3031      3030      3033      3034      3031      3030      3033      3035
      3032      3030      3033      3034      3032      3030      3033      3035
      3033      3035      3037      3038      3033      3035      3037      3039
      3033      3035      3037      3040      3034      3033      3035      3036
      3034      3033      3035      3037      3035      3037      3040      3041
      3035      3037      3040      3042      3036      3035      3037      3038
      3036      3035      3037      3039      3036      3035      3037      3040
      3037      3040      3042      3043      3037      3040      3042      3044
      3038      3037      3040      3041      3038      3037      3040      3042
      3039      3037      3040      3041      3039      3037      3040      3042
      3040      3042      3044      3045      3040      3042      3044      3046
      3040      3042      3044      3047      3041      3040      3042      3043
      3041      3040      3042      3044      3042      3044      3047      3048
      3042      3044      3047      3049      3043      3042      3044      3045
      3043      3042      3044      3046      3043      3042      3044      3047
      3044      3047      3049      3050      3044      3047      3049      3051
      3045      3044      3047      3048      3045      3044      3047      3049
      3046      3044      3047      3048      3046      3044      3047      3049
      3047      3049      3051      3052      3047      3049      3051      3053
      3047      3049      3051      3054      3048      3047      3049      3050
      3048      3047      3049      3051      3049      3051      3054      3055
      3049      3051      3054      3056      3049      3051      3054      3057
      3050      3049      3051      3052      3050      3049      3051      3053
      3050      3049      3051      3054      3051      3054      3057      3058
      3051      3054      3057      3059      3051      3054      3057      3060
      3052      3051      3054      3055      3052      3051      3054      3056
      3052      3051      3054      3057      3053      3051      3054      3055
      3053      3051      3054      3056      3053      3051      3054      3057
      3054      3057      3060      3061      3054      3057      3060      3062
      3054      3057      3060      3063      3055      3054      3057      3058
      3055      3054      3057      3059      3055      3054      3057      3060
      3056      3054      3057      3058      3056      3054      3057      3059
      3056      3054      3057      3060      3057      3060      3063      3064
      3057      3060      3063      3065      3057      3060      3063      3066
      3058      3057      3060      3061      3058      3057      3060      3062
      3058      3057      3060      3063      3059      3057      3060      3061
      3059      3057      3060      3062      3059      3057      3060      3063
      3061      3060      3063      3064      3061      3060      3063      3065
      3061      3060      3063      3066      3062      3060      3063      3064
      3062      3060      3063      3065      3062      3060      3063      3066
      3067      3070      3073      3074      3067      3070      3073      3075
      3067      3070      3073      3076      3068      3067      3070      3071
      3068      3067      3070      3072      3068      3067      3070      3073
      3069      3067      3070      3071      3069      3067      3070      3072
      3069      3067      3070      3073      3070      3073      3076      3077
      3070      3073      3076      3078      3070      3073      3076      3079
      3071      3070      3073      3074      3071      3070      3073      3075
      3071      3070      3073      3076      3072      3070      3073      3074
      3072      3070      3073      3075      3072      3070      3073      3076
      3073      3076      3079      3080      3073      3076      3079      3081
      3073      3076      3079      3082      3074      3073      3076      3077
      3074      3073      3076      3078      3074      3073      3076      3079
      3075      3073      3076      3077      3075      3073      3076      3078
      3075      3073      3076      3079      3076      3079      3082      3083
      3076      3079      3082      3084      3076      3079      3082      3085
      3077      3076      3079      3080      3077      3076      3079      3081
      3077      3076      3079      3082      3078      3076      3079      3080
      3078      3076      3079      3081      3078      3076      3079      3082
      3079      3082      3085      3086      3079      3082      3085      3087
      3079      3082      3085      3088      3080      3079      3082      3083
      3080      3079      3082      3084      3080      3079      3082      3085
      3081      3079      3082      3083      3081      3079      3082      3084
      3081      3079      3082      3085      3082      3085      3088      3089
      3082      3085      3088      3090      3082      3085      3088      3091
      3083      3082      3085      3086      3083      3082      3085      3087
      3083      3082      3085      3088      3084      3082      3085      3086
      3084      3082      3085      3087      3084      3082      3085      3088
      3085      3088      3091      3092      3085      3088      3091      3093
      3085      3088      3091      3094      3086      3085      3088      3089
      3086      3085      3088      3090      3086      3085      3088      3091
      3087      3085      3088      3089      3087      3085      3088      3090
      3087      3085      3088      3091      3088      3091      3094      3095
      3088      3091      3094      3096      3088      3091      3094      3097
      3089      3088      3091      3092      3089      3088      3091      3093
      3089      3088      3091      3094      3090      3088      3091      3092
      3090      3088      3091      3093      3090      3088      3091      3094
      3091      3094      3097      3098      3091      3094      3097      3099
      3091      3094      3097      3100      3092      3091      3094      3095
      3092      3091      3094      3096      3092      3091      3094      3097
      3093      3091      3094      3095      3093      3091      3094      3096
      3093      3091      3094      3097      3094      3097      3100      3101
      3094      3097      3100      3102      3094      3097      3100      3103
      3095      3094      3097      3098      3095      3094      3097      3099
      3095      3094      3097      3100      3096      3094      3097      3098
      3096      3094      3097      3099      3096      3094      3097      3100
      3097      3100      3103      3104      3097      3100      3103      3105
      3097      3100      3103      3106      3098      3097      3100      3101
      3098      3097      3100      3102      3098      3097      3100      3103
      3099      3097      3100      3101      3099      3097      3100      3102
      3099      3097      3100      3103      3100      3103      3106      3107
      3100      3103      3106      3108      3100      3103      3106      3109
      3101      3100      3103      3104      3101      3100      3103      3105
      3101      3100      3103      3106      3102      3100      3103      3104
      3102      3100      3103      3105      3102      3100      3103      3106
      3103      3106      3109      3110      3103      3106      3109      3111
      3103      3106      3109      3112      3104      3103      3106      3107
      3104      3103      3106      3108      3104      3103      3106      3109
      3105      3103      3106      3107      3105      3103      3106      3108
      3105      3103      3106      3109      3106      3109      3112      3113
      3106      3109      3112      3114      3106      3109      3112      3115
      3107      3106      3109      3110      3107      3106      3109      3111
      3107      3106      3109      3112      3108      3106      3109      3110
      3108      3106      3109      3111      3108      3106      3109      3112
      3110      3109      3112      3113      3110      3109      3112      3114
      3110      3109      3112      3115      3111      3109      3112      3113
      3111      3109      3112      3114      3111      3109      3112      3115
      3116      3120      3123      3124      3116      3120      3123      3125
      3116      3120      3123      3129      3117      3116      3120      3121
      3117      3116      3120      3122      3117      3116      3120      3123
      3118      3116      3120      3121      3118      3116      3120      3122
      3118      3116      3120      3123      3119      3116      3120      3121
      3119      3116      3120      3122      3119      3116      3120      3123
      3120      3123      3129      3126      3121      3120      3123      3124
      3121      3120      3123      3125      3121      3120      3123      3129
      3122      3120      3123      3124      3122      3120      3123      3125
      3122      3120      3123      3129      3123      3129      3126      3127
      3123      3129      3126      3128      3123      3129      3126      3130
      3124      3123      3129      3126      3125      3123      3129      3126
      3126      3130      3131      3132      3126      3130      3131      3133
      3126      3130      3131      3134      3127      3126      3130      3131
      3128      3126      3130      3131      3129      3126      3130      3131
      3130      3131      3134      3135      3130      3131      3134      3136
      3130      3131      3134      3142      3131      3134      3136      3137
      3131      3134      3142      3143      3131      3134      3142      3144
      3131      3134      3142      3145      3132      3131      3134      3135
      3132      3131      3134      3136      3132      3131      3134      3142
      3133      3131      3134      3135      3133      3131      3134      3136
      3133      3131      3134      3142      3134      3136      3137      3138
      3134      3136      3137      3139      3134      3142      3145      3146
      3135      3134      3136      3137      3135      3134      3142      3143
      3135      3134      3142      3144      3135      3134      3142      3145
      3136      3134      3142      3143      3136      3134      3142      3144
      3136      3134      3142      3145      3136      3137      3139      3140
      3136      3137      3139      3141      3136      3137      3139      3151
      3137      3136      3134      3142      3137      3139      3151      3152
      3137      3139      3151      3153      3137      3139      3151      3154
      3138      3137      3139      3140      3138      3137      3139      3141
      3138      3137      3139      3151      3139      3151      3154      3155
      3139      3151      3154      3156      3139      3151      3154      3157
      3140      3139      3151      3152      3140      3139      3151      3153
      3140      3139      3151      3154      3141      3139      3151      3152
      3141      3139      3151      3153      3141      3139      3151      3154
      3142      3145      3146      3147      3142      3145      3146      3148
      3143      3142      3145      3146      3144      3142      3145      3146
      3145      3146      3148      3149      3145      3146      3148      3150
      3145      3146      3148      3198      3146      3148      3198      3199
      3146      3148      3198      3200      3146      3148      3198      3201
      3147      3146      3148      3149      3147      3146      3148      3150
      3147      3146      3148      3198      3148      3198      3201      3202
      3148      3198      3201      3203      3148      3198      3201      3204
      3149      3148      3198      3199      3149      3148      3198      3200
      3149      3148      3198      3201      3150      3148      3198      3199
      3150      3148      3198      3200      3150      3148      3198      3201
      3151      3154      3157      3158      3151      3154      3157      3159
      3152      3151      3154      3155      3152      3151      3154      3156
      3152      3151      3154      3157      3153      3151      3154      3155
      3153      3151      3154      3156      3153      3151      3154      3157
      3154      3157      3159      3160      3154      3157      3159      3161
      3155      3154      3157      3158      3155      3154      3157      3159
      3156      3154      3157      3158      3156      3154      3157      3159
      3157      3159      3161      3162      3157      3159      3161      3163
      3157      3159      3161      3164      3158      3157      3159      3160
      3158      3157      3159      3161      3159      3161      3164      3165
      3159      3161      3164      3166      3160      3159      3161      3162
      3160      3159      3161      3163      3160      3159      3161      3164
      3161      3164      3166      3167      3161      3164      3166      3168
      3162      3161      3164      3165      3162      3161      3164      3166
      3163      3161      3164      3165      3163      3161      3164      3166
      3164      3166      3168      3169      3164      3166      3168      3170
      3164      3166      3168      3171      3165      3164      3166      3167
      3165      3164      3166      3168      3166      3168      3171      3172
      3166      3168      3171      3173      3167      3166      3168      3169
      3167      3166      3168      3170      3167      3166      3168      3171
      3168      3171      3173      3174      3168      3171      3173      3175
      3169      3168      3171      3172      3169      3168      3171      3173
      3170      3168      3171      3172      3170      3168      3171      3173
      3171      3173      3175      3176      3171      3173      3175      3177
      3171      3173      3175      3178      3172      3171      3173      3174
      3172      3171      3173      3175      3173      3175      3178      3179
      3173      3175      3178      3180      3174      3173      3175      3176
      3174      3173      3175      3177      3174      3173      3175      3178
      3175      3178      3180      3181      3175      3178      3180      3182
      3176      3175      3178      3179      3176      3175      3178      3180
      3177      3175      3178      3179      3177      3175      3178      3180
      3178      3180      3182      3183      3178      3180      3182      3184
      3178      3180      3182      3185      3179      3178      3180      3181
      3179      3178      3180      3182      3180      3182      3185      3186
      3180      3182      3185      3187      3180      3182      3185      3188
      3181      3180      3182      3183      3181      3180      3182      3184
      3181      3180      3182      3185      3182      3185      3188      3189
      3182      3185      3188      3190      3182      3185      3188      3191
      3183      3182      3185      3186      3183      3182      3185      3187
      3183      3182      3185      3188      3184      3182      3185      3186
      3184      3182      3185      3187      3184      3182      3185      3188
      3185      3188      3191      3192      3185      3188      3191      3193
      3185      3188      3191      3194      3186      3185      3188      3189
      3186      3185      3188      3190      3186      3185      3188      3191
      3187      3185      3188      3189      3187      3185      3188      3190
      3187      3185      3188      3191      3188      3191      3194      3195
      3188      3191      3194      3196      3188      3191      3194      3197
      3189      3188      3191      3192      3189      3188      3191      3193
      3189      3188      3191      3194      3190      3188      3191      3192
      3190      3188      3191      3193      3190      3188      3191      3194
      3192      3191      3194      3195      3192      3191      3194      3196
      3192      3191      3194      3197      3193      3191      3194      3195
      3193      3191      3194      3196      3193      3191      3194      3197
      3198      3201      3204      3205      3198      3201      3204      3206
      3198      3201      3204      3207      3199      3198      3201      3202
      3199      3198      3201      3203      3199      3198      3201      3204
      3200      3198      3201      3202      3200      3198      3201      3203
      3200      3198      3201      3204      3201      3204      3207      3208
      3201      3204      3207      3209      3201      3204      3207      3210
      3202      3201      3204      3205      3202      3201      3204      3206
      3202      3201      3204      3207      3203      3201      3204      3205
      3203      3201      3204      3206      3203      3201      3204      3207
      3204      3207      3210      3211      3204      3207      3210      3212
      3204      3207      3210      3213      3205      3204      3207      3208
      3205      3204      3207      3209      3205      3204      3207      3210
      3206      3204      3207      3208      3206      3204      3207      3209
      3206      3204      3207      3210      3207      3210      3213      3214
      3207      3210      3213      3215      3207      3210      3213      3216
      3208      3207      3210      3211      3208      3207      3210      3212
      3208      3207      3210      3213      3209      3207      3210      3211
      3209      3207      3210      3212      3209      3207      3210      3213
      3210      3213      3216      3217      3210      3213      3216      3218
      3210      3213      3216      3219      3211      3210      3213      3214
      3211      3210      3213      3215      3211      3210      3213      3216
      3212      3210      3213      3214      3212      3210      3213      3215
      3212      3210      3213      3216      3213      3216      3219      3220
      3213      3216      3219      3221      3213      3216      3219      3222
      3214      3213      3216      3217      3214      3213      3216      3218
      3214      3213      3216      3219      3215      3213      3216      3217
      3215      3213      3216      3218      3215      3213      3216      3219
      3216      3219      3222      3223      3216      3219      3222      3224
      3216      3219      3222      3225      3217      3216      3219      3220
      3217      3216      3219      3221      3217      3216      3219      3222
      3218      3216      3219      3220      3218      3216      3219      3221
      3218      3216      3219      3222      3219      3222      3225      3226
      3219      3222      3225      3227      3219      3222      3225      3228
      3220      3219      3222      3223      3220      3219      3222      3224
      3220      3219      3222      3225      3221      3219      3222      3223
      3221      3219      3222      3224      3221      3219      3222      3225
      3222      3225      3228      3229      3222      3225      3228      3230
      3222      3225      3228      3231      3223      3222      3225      3226
      3223      3222      3225      3227      3223      3222      3225      3228
      3224      3222      3225      3226      3224      3222      3225      3227
      3224      3222      3225      3228      3225      3228      3231      3232
      3225      3228      3231      3233      3225      3228      3231      3234
      3226      3225      3228      3229      3226      3225      3228      3230
      3226      3225      3228      3231      3227      3225      3228      3229
      3227      3225      3228      3230      3227      3225      3228      3231
      3228      3231      3234      3235      3228      3231      3234      3236
      3228      3231      3234      3237      3229      3228      3231      3232
      3229      3228      3231      3233      3229      3228      3231      3234
      3230      3228      3231      3232      3230      3228      3231      3233
      3230      3228      3231      3234      3231      3234      3237      3238
      3231      3234      3237      3239      3231      3234      3237      3240
      3232      3231      3234      3235      3232      3231      3234      3236
      3232      3231      3234      3237      3233      3231      3234      3235
      3233      3231      3234      3236      3233      3231      3234      3237
      3234      3237      3240      3241      3234      3237      3240      3242
      3234      3237      3240      3243      3235      3234      3237      3238
      3235      3234      3237      3239      3235      3234      3237      3240
      3236      3234      3237      3238      3236      3234      3237      3239
      3236      3234      3237      3240      3237      3240      3243      3244
      3237      3240      3243      3245      3237      3240      3243      3246
      3238      3237      3240      3241      3238      3237      3240      3242
      3238      3237      3240      3243      3239      3237      3240      3241
      3239      3237      3240      3242      3239      3237      3240      3243
      3241      3240      3243      3244      3241      3240      3243      3245
      3241      3240      3243      3246      3242      3240      3243      3244
      3242      3240      3243      3245      3242      3240      3243      3246
      3247      3251      3254      3255      3247      3251      3254      3285
      3247      3293      3290      3285      3247      3293      3290      3291
      3247      3293      3290      3292      3248      3247      3249      3250
      3248      3247      3251      3252      3248      3247      3251      3253
      3248      3247      3251      3254      3248      3247      3293      3290
      3248      3247      3293      3294      3248      3247      3293      3295
      3249      3247      3251      3252      3249      3247      3251      3253
      3249      3247      3251      3254      3249      3247      3293      3290
      3249      3247      3293      3294      3249      3247      3293      3295
      3250      3249      3247      3251      3250      3249      3247      3293
      3251      3247      3293      3290      3251      3247      3293      3294
      3251      3247      3293      3295      3251      3254      3255      3256
      3251      3254      3255      3257      3251      3254      3285      3283
      3251      3254      3285      3286      3251      3254      3285      3290
      3252      3251      3247      3293      3252      3251      3254      3255
      3252      3251      3254      3285      3253      3251      3247      3293
      3253      3251      3254      3255      3253      3251      3254      3285
      3254      3251      3247      3293      3254      3255      3257      3258
      3254      3255      3257      3259      3254      3255      3257      3260
      3254      3285      3283      3260      3254      3285      3283      3280
      3254      3285      3283      3284      3254      3285      3286      3287
      3254      3285      3286      3288      3254      3285      3286      3289
      3254      3285      3290      3291      3254      3285      3290      3292
      3254      3285      3290      3293      3255      3254      3285      3283
      3255      3254      3285      3286      3255      3254      3285      3290
      3255      3257      3260      3261      3255      3257      3260      3262
      3255      3257      3260      3283      3256      3255      3254      3285
      3256      3255      3257      3258      3256      3255      3257      3259
      3256      3255      3257      3260      3257      3255      3254      3285
      3257      3260      3262      3263      3257      3260      3262      3264
      3257      3260      3262      3272      3257      3260      3283      3280
      3257      3260      3283      3284      3257      3260      3283      3285
      3258      3257      3260      3261      3258      3257      3260      3262
      3258      3257      3260      3283      3259      3257      3260      3261
      3259      3257      3260      3262      3259      3257      3260      3283
      3260      3262      3264      3265      3260      3262      3264      3266
      3260      3262      3264      3267      3260      3262      3272      3270
      3260      3262      3272      3273      3260      3262      3272      3277
      3260      3283      3280      3277      3260      3283      3280      3281
      3260      3283      3280      3282      3260      3283      3285      3286
      3260      3283      3285      3290      3261      3260      3262      3263
      3261      3260      3262      3264      3261      3260      3262      3272
      3261      3260      3283      3280      3261      3260      3283      3284
      3261      3260      3283      3285      3262      3260      3283      3280
      3262      3260      3283      3284      3262      3260      3283      3285
      3262      3264      3267      3268      3262      3264      3267      3269
      3262      3264      3267      3270      3262      3272      3270      3267
      3262      3272      3270      3271      3262      3272      3270      3296
      3262      3272      3273      3274      3262      3272      3273      3275
      3262      3272      3273      3276      3262      3272      3277      3278
      3262      3272      3277      3279      3262      3272      3277      3280
      3263      3262      3260      3283      3263      3262      3264      3265
      3263      3262      3264      3266      3263      3262      3264      3267
      3263      3262      3272      3270      3263      3262      3272      3273
      3263      3262      3272      3277      3264      3262      3260      3283
      3264      3262      3272      3270      3264      3262      3272      3273
      3264      3262      3272      3277      3264      3267      3270      3271
      3264      3267      3270      3272      3264      3267      3270      3296
      3265      3264      3262      3272      3265      3264      3267      3268
      3265      3264      3267      3269      3265      3264      3267      3270
      3266      3264      3262      3272      3266      3264      3267      3268
      3266      3264      3267      3269      3266      3264      3267      3270
      3267      3264      3262      3272      3267      3270      3272      3273
      3267      3270      3272      3277      3267      3270      3296      3297
      3267      3270      3296      3298      3267      3270      3296      3302
      3268      3267      3270      3271      3268      3267      3270      3272
      3268      3267      3270      3296      3269      3267      3270      3271
      3269      3267      3270      3272      3269      3267      3270      3296
      3270      3272      3273      3274      3270      3272      3273      3275
      3270      3272      3273      3276      3270      3272      3277      3278
      3270      3272      3277      3279      3270      3272      3277      3280
      3270      3296      3298      3299      3270      3296      3298      3300
      3270      3296      3298      3301      3270      3296      3302      3303
      3270      3296      3302      3304      3270      3296      3302      3305
      3271      3270      3272      3273      3271      3270      3272      3277
      3271      3270      3296      3297      3271      3270      3296      3298
      3271      3270      3296      3302      3272      3262      3260      3283
      3272      3270      3296      3297      3272      3270      3296      3298
      3272      3270      3296      3302      3272      3277      3280      3281
      3272      3277      3280      3282      3272      3277      3280      3283
      3273      3272      3270      3296      3273      3272      3277      3278
      3273      3272      3277      3279      3273      3272      3277      3280
      3274      3273      3272      3277      3275      3273      3272      3277
      3276      3273      3272      3277      3277      3272      3270      3296
      3277      3280      3283      3284      3277      3280      3283      3285
      3278      3277      3280      3281      3278      3277      3280      3282
      3278      3277      3280      3283      3279      3277      3280      3281
      3279      3277      3280      3282      3279      3277      3280      3283
      3280      3283      3285      3286      3280      3283      3285      3290
      3281      3280      3283      3284      3281      3280      3283      3285
      3282      3280      3283      3284      3282      3280      3283      3285
      3283      3285      3286      3287      3283      3285      3286      3288
      3283      3285      3286      3289      3283      3285      3290      3291
      3283      3285      3290      3292      3283      3285      3290      3293
      3284      3283      3285      3286      3284      3283      3285      3290
      3285      3290      3293      3294      3285      3290      3293      3295
      3286      3285      3290      3291      3286      3285      3290      3292
      3286      3285      3290      3293      3287      3286      3285      3290
      3288      3286      3285      3290      3289      3286      3285      3290
      3291      3290      3293      3294      3291      3290      3293      3295
      3292      3290      3293      3294      3292      3290      3293      3295
      3296      3302      3305      3306      3296      3302      3305      3307
      3296      3302      3305      3308      3297      3296      3298      3299
      3297      3296      3298      3300      3297      3296      3298      3301
      3297      3296      3302      3303      3297      3296      3302      3304
      3297      3296      3302      3305      3298      3296      3302      3303
      3298      3296      3302      3304      3298      3296      3302      3305
      3299      3298      3296      3302      3300      3298      3296      3302
      3301      3298      3296      3302      3302      3305      3308      3309
      3302      3305      3308      3310      3302      3305      3308      3311
      3303      3302      3305      3306      3303      3302      3305      3307
      3303      3302      3305      3308      3304      3302      3305      3306
      3304      3302      3305      3307      3304      3302      3305      3308
      3305      3308      3311      3312      3305      3308      3311      3313
      3305      3308      3311      3317      3306      3305      3308      3309
      3306      3305      3308      3310      3306      3305      3308      3311
      3307      3305      3308      3309      3307      3305      3308      3310
      3307      3305      3308      3311      3308      3311      3313      3314
      3308      3311      3313      3315      3308      3311      3313      3316
      3308      3311      3317      3318      3308      3311      3317      3319
      3308      3311      3317      3320      3309      3308      3311      3312
      3309      3308      3311      3313      3309      3308      3311      3317
      3310      3308      3311      3312      3310      3308      3311      3313
      3310      3308      3311      3317      3312      3311      3313      3314
      3312      3311      3313      3315      3312      3311      3313      3316
      3312      3311      3317      3318      3312      3311      3317      3319
      3312      3311      3317      3320      3313      3311      3317      3318
      3313      3311      3317      3319      3313      3311      3317      3320
      3314      3313      3311      3317      3315      3313      3311      3317
      3316      3313      3311      3317      3321      3325      3328      3329
      3321      3325      3328      3330      3321      3325      3328      3334
      3322      3321      3325      3326      3322      3321      3325      3327
      3322      3321      3325      3328      3323      3321      3325      3326
      3323      3321      3325      3327      3323      3321      3325      3328
      3324      3321      3325      3326      3324      3321      3325      3327
      3324      3321      3325      3328      3325      3328      3334      3331
      3326      3325      3328      3329      3326      3325      3328      3330
      3326      3325      3328      3334      3327      3325      3328      3329
      3327      3325      3328      3330      3327      3325      3328      3334
      3328      3334      3331      3332      3328      3334      3331      3333
      3328      3334      3331      3335      3329      3328      3334      3331
      3330      3328      3334      3331      3331      3335      3336      3337
      3331      3335      3336      3338      3331      3335      3336      3339
      3332      3331      3335      3336      3333      3331      3335      3336
      3334      3331      3335      3336      3335      3336      3339      3340
      3335      3336      3339      3341      3335      3336      3339      3347
      3336      3339      3341      3342      3336      3339      3347      3348
      3336      3339      3347      3349      3336      3339      3347      3350
      3337      3336      3339      3340      3337      3336      3339      3341
      3337      3336      3339      3347      3338      3336      3339      3340
      3338      3336      3339      3341      3338      3336      3339      3347
      3339      3341      3342      3343      3339      3341      3342      3344
      3339      3347      3350      3351      3340      3339      3341      3342
      3340      3339      3347      3348      3340      3339      3347      3349
      3340      3339      3347      3350      3341      3339      3347      3348
      3341      3339      3347      3349      3341      3339      3347      3350
      3341      3342      3344      3345      3341      3342      3344      3346
      3341      3342      3344      3356      3342      3341      3339      3347
      3342      3344      3356      3357      3342      3344      3356      3358
      3342      3344      3356      3359      3343      3342      3344      3345
      3343      3342      3344      3346      3343      3342      3344      3356
      3344      3356      3359      3360      3344      3356      3359      3361
      3344      3356      3359      3362      3345      3344      3356      3357
      3345      3344      3356      3358      3345      3344      3356      3359
      3346      3344      3356      3357      3346      3344      3356      3358
      3346      3344      3356      3359      3347      3350      3351      3352
      3347      3350      3351      3353      3348      3347      3350      3351
      3349      3347      3350      3351      3350      3351      3353      3354
      3350      3351      3353      3355      3350      3351      3353      3403
      3351      3353      3403      3404      3351      3353      3403      3405
      3351      3353      3403      3406      3352      3351      3353      3354
      3352      3351      3353      3355      3352      3351      3353      3403
      3353      3403      3406      3407      3353      3403      3406      3408
      3353      3403      3406      3409      3354      3353      3403      3404
      3354      3353      3403      3405      3354      3353      3403      3406
      3355      3353      3403      3404      3355      3353      3403      3405
      3355      3353      3403      3406      3356      3359      3362      3363
      3356      3359      3362      3364      3357      3356      3359      3360
      3357      3356      3359      3361      3357      3356      3359      3362
      3358      3356      3359      3360      3358      3356      3359      3361
      3358      3356      3359      3362      3359      3362      3364      3365
      3359      3362      3364      3366      3360      3359      3362      3363
      3360      3359      3362      3364      3361      3359      3362      3363
      3361      3359      3362      3364      3362      3364      3366      3367
      3362      3364      3366      3368      3362      3364      3366      3369
      3363      3362      3364      3365      3363      3362      3364      3366
      3364      3366      3369      3370      3364      3366      3369      3371
      3365      3364      3366      3367      3365      3364      3366      3368
      3365      3364      3366      3369      3366      3369      3371      3372
      3366      3369      3371      3373      3367      3366      3369      3370
      3367      3366      3369      3371      3368      3366      3369      3370
      3368      3366      3369      3371      3369      3371      3373      3374
      3369      3371      3373      3375      3369      3371      3373      3376
      3370      3369      3371      3372      3370      3369      3371      3373
      3371      3373      3376      3377      3371      3373      3376      3378
      3372      3371      3373      3374      3372      3371      3373      3375
      3372      3371      3373      3376      3373      3376      3378      3379
      3373      3376      3378      3380      3374      3373      3376      3377
      3374      3373      3376      3378      3375      3373      3376      3377
      3375      3373      3376      3378      3376      3378      3380      3381
      3376      3378      3380      3382      3376      3378      3380      3383
      3377      3376      3378      3379      3377      3376      3378      3380
      3378      3380      3383      3384      3378      3380      3383      3385
      3379      3378      3380      3381      3379      3378      3380      3382
      3379      3378      3380      3383      3380      3383      3385      3386
      3380      3383      3385      3387      3381      3380      3383      3384
      3381      3380      3383      3385      3382      3380      3383      3384
      3382      3380      3383      3385      3383      3385      3387      3388
      3383      3385      3387      3389      3383      3385      3387      3390
      3384      3383      3385      3386      3384      3383      3385      3387
      3385      3387      3390      3391      3385      3387      3390      3392
      3385      3387      3390      3393      3386      3385      3387      3388
      3386      3385      3387      3389      3386      3385      3387      3390
      3387      3390      3393      3394      3387      3390      3393      3395
      3387      3390      3393      3396      3388      3387      3390      3391
      3388      3387      3390      3392      3388      3387      3390      3393
      3389      3387      3390      3391      3389      3387      3390      3392
      3389      3387      3390      3393      3390      3393      3396      3397
      3390      3393      3396      3398      3390      3393      3396      3399
      3391      3390      3393      3394      3391      3390      3393      3395
      3391      3390      3393      3396      3392      3390      3393      3394
      3392      3390      3393      3395      3392      3390      3393      3396
      3393      3396      3399      3400      3393      3396      3399      3401
      3393      3396      3399      3402      3394      3393      3396      3397
      3394      3393      3396      3398      3394      3393      3396      3399
      3395      3393      3396      3397      3395      3393      3396      3398
      3395      3393      3396      3399      3397      3396      3399      3400
      3397      3396      3399      3401      3397      3396      3399      3402
      3398      3396      3399      3400      3398      3396      3399      3401
      3398      3396      3399      3402      3403      3406      3409      3410
      3403      3406      3409      3411      3403      3406      3409      3412
      3404      3403      3406      3407      3404      3403      3406      3408
      3404      3403      3406      3409      3405      3403      3406      3407
      3405      3403      3406      3408      3405      3403      3406      3409
      3406      3409      3412      3413      3406      3409      3412      3414
      3406      3409      3412      3415      3407      3406      3409      3410
      3407      3406      3409      3411      3407      3406      3409      3412
      3408      3406      3409      3410      3408      3406      3409      3411
      3408      3406      3409      3412      3409      3412      3415      3416
      3409      3412      3415      3417      3409      3412      3415      3418
      3410      3409      3412      3413      3410      3409      3412      3414
      3410      3409      3412      3415      3411      3409      3412      3413
      3411      3409      3412      3414      3411      3409      3412      3415
      3412      3415      3418      3419      3412      3415      3418      3420
      3412      3415      3418      3421      3413      3412      3415      3416
      3413      3412      3415      3417      3413      3412      3415      3418
      3414      3412      3415      3416      3414      3412      3415      3417
      3414      3412      3415      3418      3415      3418      3421      3422
      3415      3418      3421      3423      3415      3418      3421      3424
      3416      3415      3418      3419      3416      3415      3418      3420
      3416      3415      3418      3421      3417      3415      3418      3419
      3417      3415      3418      3420      3417      3415      3418      3421
      3418      3421      3424      3425      3418      3421      3424      3426
      3418      3421      3424      3427      3419      3418      3421      3422
      3419      3418      3421      3423      3419      3418      3421      3424
      3420      3418      3421      3422      3420      3418      3421      3423
      3420      3418      3421      3424      3421      3424      3427      3428
      3421      3424      3427      3429      3421      3424      3427      3430
      3422      3421      3424      3425      3422      3421      3424      3426
      3422      3421      3424      3427      3423      3421      3424      3425
      3423      3421      3424      3426      3423      3421      3424      3427
      3424      3427      3430      3431      3424      3427      3430      3432
      3424      3427      3430      3433      3425      3424      3427      3428
      3425      3424      3427      3429      3425      3424      3427      3430
      3426      3424      3427      3428      3426      3424      3427      3429
      3426      3424      3427      3430      3427      3430      3433      3434
      3427      3430      3433      3435      3427      3430      3433      3436
      3428      3427      3430      3431      3428      3427      3430      3432
      3428      3427      3430      3433      3429      3427      3430      3431
      3429      3427      3430      3432      3429      3427      3430      3433
      3430      3433      3436      3437      3430      3433      3436      3438
      3430      3433      3436      3439      3431      3430      3433      3434
      3431      3430      3433      3435      3431      3430      3433      3436
      3432      3430      3433      3434      3432      3430      3433      3435
      3432      3430      3433      3436      3433      3436      3439      3440
      3433      3436      3439      3441      3433      3436      3439      3442
      3434      3433      3436      3437      3434      3433      3436      3438
      3434      3433      3436      3439      3435      3433      3436      3437
      3435      3433      3436      3438      3435      3433      3436      3439
      3436      3439      3442      3443      3436      3439      3442      3444
      3436      3439      3442      3445      3437      3436      3439      3440
      3437      3436      3439      3441      3437      3436      3439      3442
      3438      3436      3439      3440      3438      3436      3439      3441
      3438      3436      3439      3442      3439      3442      3445      3446
      3439      3442      3445      3447      3439      3442      3445      3448
      3440      3439      3442      3443      3440      3439      3442      3444
      3440      3439      3442      3445      3441      3439      3442      3443
      3441      3439      3442      3444      3441      3439      3442      3445
      3442      3445      3448      3449      3442      3445      3448      3450
      3442      3445      3448      3451      3443      3442      3445      3446
      3443      3442      3445      3447      3443      3442      3445      3448
      3444      3442      3445      3446      3444      3442      3445      3447
      3444      3442      3445      3448      3446      3445      3448      3449
      3446      3445      3448      3450      3446      3445      3448      3451
      3447      3445      3448      3449      3447      3445      3448      3450
      3447      3445      3448      3451      3452      3465      3468      3469
      3452      3465      3468      3470      3452      3465      3468      3474
      3453      3452      3457      3458      3453      3452      3457      3459
      3453      3452      3457      3460      3453      3452      3461      3462
      3453      3452      3461      3463      3453      3452      3461      3464
      3453      3452      3465      3466      3453      3452      3465      3467
      3453      3452      3465      3468      3454      3453      3452      3457
      3454      3453      3452      3461      3454      3453      3452      3465
      3455      3453      3452      3457      3455      3453      3452      3461
      3455      3453      3452      3465      3456      3453      3452      3457
      3456      3453      3452      3461      3456      3453      3452      3465
      3457      3452      3461      3462      3457      3452      3461      3463
      3457      3452      3461      3464      3457      3452      3465      3466
      3457      3452      3465      3467      3457      3452      3465      3468
      3458      3457      3452      3461      3458      3457      3452      3465
      3459      3457      3452      3461      3459      3457      3452      3465
      3460      3457      3452      3461      3460      3457      3452      3465
      3461      3452      3465      3466      3461      3452      3465      3467
      3461      3452      3465      3468      3462      3461      3452      3465
      3463      3461      3452      3465      3464      3461      3452      3465
      3465      3468      3474      3471      3466      3465      3468      3469
      3466      3465      3468      3470      3466      3465      3468      3474
      3467      3465      3468      3469      3467      3465      3468      3470
      3467      3465      3468      3474      3468      3474      3471      3472
      3468      3474      3471      3473      3468      3474      3471      3475
      3469      3468      3474      3471      3470      3468      3474      3471
      3471      3475      3476      3477      3471      3475      3476      3478
      3471      3475      3476      3479      3472      3471      3475      3476
      3473      3471      3475      3476      3474      3471      3475      3476
      3475      3476      3479      3480      3475      3476      3479      3481
      3475      3476      3479      3487      3476      3479      3481      3482
      3476      3479      3487      3488      3476      3479      3487      3489
      3476      3479      3487      3490      3477      3476      3479      3480
      3477      3476      3479      3481      3477      3476      3479      3487
      3478      3476      3479      3480      3478      3476      3479      3481
      3478      3476      3479      3487      3479      3481      3482      3483
      3479      3481      3482      3484      3479      3487      3490      3491
      3480      3479      3481      3482      3480      3479      3487      3488
      3480      3479      3487      3489      3480      3479      3487      3490
      3481      3479      3487      3488      3481      3479      3487      3489
      3481      3479      3487      3490      3481      3482      3484      3485
      3481      3482      3484      3486      3481      3482      3484      3496
      3482      3481      3479      3487      3482      3484      3496      3497
      3482      3484      3496      3498      3482      3484      3496      3499
      3483      3482      3484      3485      3483      3482      3484      3486
      3483      3482      3484      3496      3484      3496      3499      3500
      3484      3496      3499      3501      3484      3496      3499      3502
      3485      3484      3496      3497      3485      3484      3496      3498
      3485      3484      3496      3499      3486      3484      3496      3497
      3486      3484      3496      3498      3486      3484      3496      3499
      3487      3490      3491      3492      3487      3490      3491      3493
      3488      3487      3490      3491      3489      3487      3490      3491
      3490      3491      3493      3494      3490      3491      3493      3495
      3490      3491      3493      3541      3491      3493      3541      3542
      3491      3493      3541      3543      3491      3493      3541      3544
      3492      3491      3493      3494      3492      3491      3493      3495
      3492      3491      3493      3541      3493      3541      3544      3545
      3493      3541      3544      3546      3493      3541      3544      3547
      3494      3493      3541      3542      3494      3493      3541      3543
      3494      3493      3541      3544      3495      3493      3541      3542
      3495      3493      3541      3543      3495      3493      3541      3544
      3496      3499      3502      3503      3496      3499      3502      3504
      3496      3499      3502      3505      3497      3496      3499      3500
      3497      3496      3499      3501      3497      3496      3499      3502
      3498      3496      3499      3500      3498      3496      3499      3501
      3498      3496      3499      3502      3499      3502      3505      3506
      3499      3502      3505      3507      3499      3502      3505      3508
      3500      3499      3502      3503      3500      3499      3502      3504
      3500      3499      3502      3505      3501      3499      3502      3503
      3501      3499      3502      3504      3501      3499      3502      3505
      3502      3505      3508      3509      3502      3505      3508      3510
      3502      3505      3508      3511      3503      3502      3505      3506
      3503      3502      3505      3507      3503      3502      3505      3508
      3504      3502      3505      3506      3504      3502      3505      3507
      3504      3502      3505      3508      3505      3508      3511      3512
      3505      3508      3511      3513      3505      3508      3511      3514
      3506      3505      3508      3509      3506      3505      3508      3510
      3506      3505      3508      3511      3507      3505      3508      3509
      3507      3505      3508      3510      3507      3505      3508      3511
      3508      3511      3514      3515      3508      3511      3514      3516
      3509      3508      3511      3512      3509      3508      3511      3513
      3509      3508      3511      3514      3510      3508      3511      3512
      3510      3508      3511      3513      3510      3508      3511      3514
      3511      3514      3516      3517      3511      3514      3516      3518
      3512      3511      3514      3515      3512      3511      3514      3516
      3513      3511      3514      3515      3513      3511      3514      3516
      3514      3516      3518      3519      3514      3516      3518      3520
      3514      3516      3518      3521      3515      3514      3516      3517
      3515      3514      3516      3518      3516      3518      3521      3522
      3516      3518      3521      3523      3517      3516      3518      3519
      3517      3516      3518      3520      3517      3516      3518      3521
      3518      3521      3523      3524      3518      3521      3523      3525
      3519      3518      3521      3522      3519      3518      3521      3523
      3520      3518      3521      3522      3520      3518      3521      3523
      3521      3523      3525      3526      3521      3523      3525      3527
      3521      3523      3525      3528      3522      3521      3523      3524
      3522      3521      3523      3525      3523      3525      3528      3529
      3523      3525      3528      3530      3523      3525      3528      3531
      3524      3523      3525      3526      3524      3523      3525      3527
      3524      3523      3525      3528      3525      3528      3531      3532
      3525      3528      3531      3533      3525      3528      3531      3534
      3526      3525      3528      3529      3526      3525      3528      3530
      3526      3525      3528      3531      3527      3525      3528      3529
      3527      3525      3528      3530      3527      3525      3528      3531
      3528      3531      3534      3535      3528      3531      3534      3536
      3528      3531      3534      3537      3529      3528      3531      3532
      3529      3528      3531      3533      3529      3528      3531      3534
      3530      3528      3531      3532      3530      3528      3531      3533
      3530      3528      3531      3534      3531      3534      3537      3538
      3531      3534      3537      3539      3531      3534      3537      3540
      3532      3531      3534      3535      3532      3531      3534      3536
      3532      3531      3534      3537      3533      3531      3534      3535
      3533      3531      3534      3536      3533      3531      3534      3537
      3535      3534      3537      3538      3535      3534      3537      3539
      3535      3534      3537      3540      3536      3534      3537      3538
      3536      3534      3537      3539      3536      3534      3537      3540
      3541      3544      3547      3548      3541      3544      3547      3549
      3541      3544      3547      3550      3542      3541      3544      3545
      3542      3541      3544      3546      3542      3541      3544      3547
      3543      3541      3544      3545      3543      3541      3544      3546
      3543      3541      3544      3547      3544      3547      3550      3551
      3544      3547      3550      3552      3544      3547      3550      3553
      3545      3544      3547      3548      3545      3544      3547      3549
      3545      3544      3547      3550      3546      3544      3547      3548
      3546      3544      3547      3549      3546      3544      3547      3550
      3547      3550      3553      3554      3547      3550      3553      3555
      3547      3550      3553      3556      3548      3547      3550      3551
      3548      3547      3550      3552      3548      3547      3550      3553
      3549      3547      3550      3551      3549      3547      3550      3552
      3549      3547      3550      3553      3550      3553      3556      3557
      3550      3553      3556      3558      3550      3553      3556      3559
      3551      3550      3553      3554      3551      3550      3553      3555
      3551      3550      3553      3556      3552      3550      3553      3554
      3552      3550      3553      3555      3552      3550      3553      3556
      3553      3556      3559      3560      3553      3556      3559      3561
      3553      3556      3559      3562      3554      3553      3556      3557
      3554      3553      3556      3558      3554      3553      3556      3559
      3555      3553      3556      3557      3555      3553      3556      3558
      3555      3553      3556      3559      3556      3559      3562      3563
      3556      3559      3562      3564      3556      3559      3562      3565
      3557      3556      3559      3560      3557      3556      3559      3561
      3557      3556      3559      3562      3558      3556      3559      3560
      3558      3556      3559      3561      3558      3556      3559      3562
      3559      3562      3565      3566      3559      3562      3565      3567
      3559      3562      3565      3568      3560      3559      3562      3563
      3560      3559      3562      3564      3560      3559      3562      3565
      3561      3559      3562      3563      3561      3559      3562      3564
      3561      3559      3562      3565      3562      3565      3568      3569
      3562      3565      3568      3570      3562      3565      3568      3571
      3563      3562      3565      3566      3563      3562      3565      3567
      3563      3562      3565      3568      3564      3562      3565      3566
      3564      3562      3565      3567      3564      3562      3565      3568
      3565      3568      3571      3572      3565      3568      3571      3573
      3565      3568      3571      3574      3566      3565      3568      3569
      3566      3565      3568      3570      3566      3565      3568      3571
      3567      3565      3568      3569      3567      3565      3568      3570
      3567      3565      3568      3571      3568      3571      3574      3575
      3568      3571      3574      3576      3568      3571      3574      3577
      3569      3568      3571      3572      3569      3568      3571      3573
      3569      3568      3571      3574      3570      3568      3571      3572
      3570      3568      3571      3573      3570      3568      3571      3574
      3571      3574      3577      3578      3571      3574      3577      3579
      3571      3574      3577      3580      3572      3571      3574      3575
      3572      3571      3574      3576      3572      3571      3574      3577
      3573      3571      3574      3575      3573      3571      3574      3576
      3573      3571      3574      3577      3574      3577      3580      3581
      3574      3577      3580      3582      3574      3577      3580      3583
      3575      3574      3577      3578      3575      3574      3577      3579
      3575      3574      3577      3580      3576      3574      3577      3578
      3576      3574      3577      3579      3576      3574      3577      3580
      3577      3580      3583      3584      3577      3580      3583      3585
      3577      3580      3583      3586      3578      3577      3580      3581
      3578      3577      3580      3582      3578      3577      3580      3583
      3579      3577      3580      3581      3579      3577      3580      3582
      3579      3577      3580      3583      3580      3583      3586      3587
      3580      3583      3586      3588      3580      3583      3586      3589
      3581      3580      3583      3584      3581      3580      3583      3585
      3581      3580      3583      3586      3582      3580      3583      3584
      3582      3580      3583      3585      3582      3580      3583      3586
      3584      3583      3586      3587      3584      3583      3586      3588
      3584      3583      3586      3589      3585      3583      3586      3587
      3585      3583      3586      3588      3585      3583      3586      3589
      3590      3594      3597      3598      3590      3594      3597      3628
      3590      3636      3633      3628      3590      3636      3633      3634
      3590      3636      3633      3635      3591      3590      3592      3593
      3591      3590      3594      3595      3591      3590      3594      3596
      3591      3590      3594      3597      3591      3590      3636      3633
      3591      3590      3636      3637      3591      3590      3636      3638
      3592      3590      3594      3595      3592      3590      3594      3596
      3592      3590      3594      3597      3592      3590      3636      3633
      3592      3590      3636      3637      3592      3590      3636      3638
      3593      3592      3590      3594      3593      3592      3590      3636
      3594      3590      3636      3633      3594      3590      3636      3637
      3594      3590      3636      3638      3594      3597      3598      3599
      3594      3597      3598      3600      3594      3597      3628      3626
      3594      3597      3628      3629      3594      3597      3628      3633
      3595      3594      3590      3636      3595      3594      3597      3598
      3595      3594      3597      3628      3596      3594      3590      3636
      3596      3594      3597      3598      3596      3594      3597      3628
      3597      3594      3590      3636      3597      3598      3600      3601
      3597      3598      3600      3602      3597      3598      3600      3603
      3597      3628      3626      3603      3597      3628      3626      3623
      3597      3628      3626      3627      3597      3628      3629      3630
      3597      3628      3629      3631      3597      3628      3629      3632
      3597      3628      3633      3634      3597      3628      3633      3635
      3597      3628      3633      3636      3598      3597      3628      3626
      3598      3597      3628      3629      3598      3597      3628      3633
      3598      3600      3603      3604      3598      3600      3603      3605
      3598      3600      3603      3626      3599      3598      3597      3628
      3599      3598      3600      3601      3599      3598      3600      3602
      3599      3598      3600      3603      3600      3598      3597      3628
      3600      3603      3605      3606      3600      3603      3605      3607
      3600      3603      3605      3615      3600      3603      3626      3623
      3600      3603      3626      3627      3600      3603      3626      3628
      3601      3600      3603      3604      3601      3600      3603      3605
      3601      3600      3603      3626      3602      3600      3603      3604
      3602      3600      3603      3605      3602      3600      3603      3626
      3603      3605      3607      3608      3603      3605      3607      3609
      3603      3605      3607      3610      3603      3605      3615      3613
      3603      3605      3615      3616      3603      3605      3615      3620
      3603      3626      3623      3620      3603      3626      3623      3624
      3603      3626      3623      3625      3603      3626      3628      3629
      3603      3626      3628      3633      3604      3603      3605      3606
      3604      3603      3605      3607      3604      3603      3605      3615
      3604      3603      3626      3623      3604      3603      3626      3627
      3604      3603      3626      3628      3605      3603      3626      3623
      3605      3603      3626      3627      3605      3603      3626      3628
      3605      3607      3610      3611      3605      3607      3610      3612
      3605      3607      3610      3613      3605      3615      3613      3610
      3605      3615      3613      3614      3605      3615      3613      3639
      3605      3615      3616      3617      3605      3615      3616      3618
      3605      3615      3616      3619      3605      3615      3620      3621
      3605      3615      3620      3622      3605      3615      3620      3623
      3606      3605      3603      3626      3606      3605      3607      3608
      3606      3605      3607      3609      3606      3605      3607      3610
      3606      3605      3615      3613      3606      3605      3615      3616
      3606      3605      3615      3620      3607      3605      3603      3626
      3607      3605      3615      3613      3607      3605      3615      3616
      3607      3605      3615      3620      3607      3610      3613      3614
      3607      3610      3613      3615      3607      3610      3613      3639
      3608      3607      3605      3615      3608      3607      3610      3611
      3608      3607      3610      3612      3608      3607      3610      3613
      3609      3607      3605      3615      3609      3607      3610      3611
      3609      3607      3610      3612      3609      3607      3610      3613
      3610      3607      3605      3615      3610      3613      3615      3616
      3610      3613      3615      3620      3610      3613      3639      3640
      3610      3613      3639      3641      3610      3613      3639      3645
      3611      3610      3613      3614      3611      3610      3613      3615
      3611      3610      3613      3639      3612      3610      3613      3614
      3612      3610      3613      3615      3612      3610      3613      3639
      3613      3615      3616      3617      3613      3615      3616      3618
      3613      3615      3616      3619      3613      3615      3620      3621
      3613      3615      3620      3622      3613      3615      3620      3623
      3613      3639      3641      3642      3613      3639      3641      3643
      3613      3639      3641      3644      3613      3639      3645      3646
      3613      3639      3645      3647      3613      3639      3645      3648
      3614      3613      3615      3616      3614      3613      3615      3620
      3614      3613      3639      3640      3614      3613      3639      3641
      3614      3613      3639      3645      3615      3605      3603      3626
      3615      3613      3639      3640      3615      3613      3639      3641
      3615      3613      3639      3645      3615      3620      3623      3624
      3615      3620      3623      3625      3615      3620      3623      3626
      3616      3615      3613      3639      3616      3615      3620      3621
      3616      3615      3620      3622      3616      3615      3620      3623
      3617      3616      3615      3620      3618      3616      3615      3620
      3619      3616      3615      3620      3620      3615      3613      3639
      3620      3623      3626      3627      3620      3623      3626      3628
      3621      3620      3623      3624      3621      3620      3623      3625
      3621      3620      3623      3626      3622      3620      3623      3624
      3622      3620      3623      3625      3622      3620      3623      3626
      3623      3626      3628      3629      3623      3626      3628      3633
      3624      3623      3626      3627      3624      3623      3626      3628
      3625      3623      3626      3627      3625      3623      3626      3628
      3626      3628      3629      3630      3626      3628      3629      3631
      3626      3628      3629      3632      3626      3628      3633      3634
      3626      3628      3633      3635      3626      3628      3633      3636
      3627      3626      3628      3629      3627      3626      3628      3633
      3628      3633      3636      3637      3628      3633      3636      3638
      3629      3628      3633      3634      3629      3628      3633      3635
      3629      3628      3633      3636      3630      3629      3628      3633
      3631      3629      3628      3633      3632      3629      3628      3633
      3634      3633      3636      3637      3634      3633      3636      3638
      3635      3633      3636      3637      3635      3633      3636      3638
      3639      3645      3648      3649      3639      3645      3648      3650
      3639      3645      3648      3651      3640      3639      3641      3642
      3640      3639      3641      3643      3640      3639      3641      3644
      3640      3639      3645      3646      3640      3639      3645      3647
      3640      3639      3645      3648      3641      3639      3645      3646
      3641      3639      3645      3647      3641      3639      3645      3648
      3642      3641      3639      3645      3643      3641      3639      3645
      3644      3641      3639      3645      3645      3648      3651      3652
      3645      3648      3651      3653      3645      3648      3651      3654
      3646      3645      3648      3649      3646      3645      3648      3650
      3646      3645      3648      3651      3647      3645      3648      3649
      3647      3645      3648      3650      3647      3645      3648      3651
      3648      3651      3654      3655      3648      3651      3654      3656
      3648      3651      3654      3660      3649      3648      3651      3652
      3649      3648      3651      3653      3649      3648      3651      3654
      3650      3648      3651      3652      3650      3648      3651      3653
      3650      3648      3651      3654      3651      3654      3656      3657
      3651      3654      3656      3658      3651      3654      3656      3659
      3651      3654      3660      3661      3651      3654      3660      3662
      3651      3654      3660      3663      3652      3651      3654      3655
      3652      3651      3654      3656      3652      3651      3654      3660
      3653      3651      3654      3655      3653      3651      3654      3656
      3653      3651      3654      3660      3655      3654      3656      3657
      3655      3654      3656      3658      3655      3654      3656      3659
      3655      3654      3660      3661      3655      3654      3660      3662
      3655      3654      3660      3663      3656      3654      3660      3661
      3656      3654      3660      3662      3656      3654      3660      3663
      3657      3656      3654      3660      3658      3656      3654      3660
      3659      3656      3654      3660      3664      3668      3671      3672
      3664      3668      3671      3673      3664      3668      3671      3677
      3665      3664      3668      3669      3665      3664      3668      3670
      3665      3664      3668      3671      3666      3664      3668      3669
      3666      3664      3668      3670      3666      3664      3668      3671
      3667      3664      3668      3669      3667      3664      3668      3670
      3667      3664      3668      3671      3668      3671      3677      3674
      3669      3668      3671      3672      3669      3668      3671      3673
      3669      3668      3671      3677      3670      3668      3671      3672
      3670      3668      3671      3673      3670      3668      3671      3677
      3671      3677      3674      3675      3671      3677      3674      3676
      3671      3677      3674      3678      3672      3671      3677      3674
      3673      3671      3677      3674      3674      3678      3679      3680
      3674      3678      3679      3681      3674      3678      3679      3682
      3675      3674      3678      3679      3676      3674      3678      3679
      3677      3674      3678      3679      3678      3679      3682      3683
      3678      3679      3682      3684      3678      3679      3682      3690
      3679      3682      3684      3685      3679      3682      3690      3691
      3679      3682      3690      3692      3679      3682      3690      3693
      3680      3679      3682      3683      3680      3679      3682      3684
      3680      3679      3682      3690      3681      3679      3682      3683
      3681      3679      3682      3684      3681      3679      3682      3690
      3682      3684      3685      3686      3682      3684      3685      3687
      3682      3690      3693      3694      3683      3682      3684      3685
      3683      3682      3690      3691      3683      3682      3690      3692
      3683      3682      3690      3693      3684      3682      3690      3691
      3684      3682      3690      3692      3684      3682      3690      3693
      3684      3685      3687      3688      3684      3685      3687      3689
      3684      3685      3687      3699      3685      3684      3682      3690
      3685      3687      3699      3700      3685      3687      3699      3701
      3685      3687      3699      3702      3686      3685      3687      3688
      3686      3685      3687      3689      3686      3685      3687      3699
      3687      3699      3702      3703      3687      3699      3702      3704
      3687      3699      3702      3705      3688      3687      3699      3700
      3688      3687      3699      3701      3688      3687      3699      3702
      3689      3687      3699      3700      3689      3687      3699      3701
      3689      3687      3699      3702      3690      3693      3694      3695
      3690      3693      3694      3696      3691      3690      3693      3694
      3692      3690      3693      3694      3693      3694      3696      3697
      3693      3694      3696      3698      3693      3694      3696      3746
      3694      3696      3746      3747      3694      3696      3746      3748
      3694      3696      3746      3749      3695      3694      3696      3697
      3695      3694      3696      3698      3695      3694      3696      3746
      3696      3746      3749      3750      3696      3746      3749      3751
      3696      3746      3749      3752      3697      3696      3746      3747
      3697      3696      3746      3748      3697      3696      3746      3749
      3698      3696      3746      3747      3698      3696      3746      3748
      3698      3696      3746      3749      3699      3702      3705      3706
      3699      3702      3705      3707      3700      3699      3702      3703
      3700      3699      3702      3704      3700      3699      3702      3705
      3701      3699      3702      3703      3701      3699      3702      3704
      3701      3699      3702      3705      3702      3705      3707      3708
      3702      3705      3707      3709      3703      3702      3705      3706
      3703      3702      3705      3707      3704      3702      3705      3706
      3704      3702      3705      3707      3705      3707      3709      3710
      3705      3707      3709      3711      3705      3707      3709      3712
      3706      3705      3707      3708      3706      3705      3707      3709
      3707      3709      3712      3713      3707      3709      3712      3714
      3708      3707      3709      3710      3708      3707      3709      3711
      3708      3707      3709      3712      3709      3712      3714      3715
      3709      3712      3714      3716      3710      3709      3712      3713
      3710      3709      3712      3714      3711      3709      3712      3713
      3711      3709      3712      3714      3712      3714      3716      3717
      3712      3714      3716      3718      3712      3714      3716      3719
      3713      3712      3714      3715      3713      3712      3714      3716
      3714      3716      3719      3720      3714      3716      3719      3721
      3715      3714      3716      3717      3715      3714      3716      3718
      3715      3714      3716      3719      3716      3719      3721      3722
      3716      3719      3721      3723      3717      3716      3719      3720
      3717      3716      3719      3721      3718      3716      3719      3720
      3718      3716      3719      3721      3719      3721      3723      3724
      3719      3721      3723      3725      3719      3721      3723      3726
      3720      3719      3721      3722      3720      3719      3721      3723
      3721      3723      3726      3727      3721      3723      3726      3728
      3722      3721      3723      3724      3722      3721      3723      3725
      3722      3721      3723      3726      3723      3726      3728      3729
      3723      3726      3728      3730      3724      3723      3726      3727
      3724      3723      3726      3728      3725      3723      3726      3727
      3725      3723      3726      3728      3726      3728      3730      3731
      3726      3728      3730      3732      3726      3728      3730      3733
      3727      3726      3728      3729      3727      3726      3728      3730
      3728      3730      3733      3734      3728      3730      3733      3735
      3728      3730      3733      3736      3729      3728      3730      3731
      3729      3728      3730      3732      3729      3728      3730      3733
      3730      3733      3736      3737      3730      3733      3736      3738
      3730      3733      3736      3739      3731      3730      3733      3734
      3731      3730      3733      3735      3731      3730      3733      3736
      3732      3730      3733      3734      3732      3730      3733      3735
      3732      3730      3733      3736      3733      3736      3739      3740
      3733      3736      3739      3741      3733      3736      3739      3742
      3734      3733      3736      3737      3734      3733      3736      3738
      3734      3733      3736      3739      3735      3733      3736      3737
      3735      3733      3736      3738      3735      3733      3736      3739
      3736      3739      3742      3743      3736      3739      3742      3744
      3736      3739      3742      3745      3737      3736      3739      3740
      3737      3736      3739      3741      3737      3736      3739      3742
      3738      3736      3739      3740      3738      3736      3739      3741
      3738      3736      3739      3742      3740      3739      3742      3743
      3740      3739      3742      3744      3740      3739      3742      3745
      3741      3739      3742      3743      3741      3739      3742      3744
      3741      3739      3742      3745      3746      3749      3752      3753
      3746      3749      3752      3754      3746      3749      3752      3755
      3747      3746      3749      3750      3747      3746      3749      3751
      3747      3746      3749      3752      3748      3746      3749      3750
      3748      3746      3749      3751      3748      3746      3749      3752
      3749      3752      3755      3756      3749      3752      3755      3757
      3749      3752      3755      3758      3750      3749      3752      3753
      3750      3749      3752      3754      3750      3749      3752      3755
      3751      3749      3752      3753      3751      3749      3752      3754
      3751      3749      3752      3755      3752      3755      3758      3759
      3752      3755      3758      3760      3752      3755      3758      3761
      3753      3752      3755      3756      3753      3752      3755      3757
      3753      3752      3755      3758      3754      3752      3755      3756
      3754      3752      3755      3757      3754      3752      3755      3758
      3755      3758      3761      3762      3755      3758      3761      3763
      3755      3758      3761      3764      3756      3755      3758      3759
      3756      3755      3758      3760      3756      3755      3758      3761
      3757      3755      3758      3759      3757      3755      3758      3760
      3757      3755      3758      3761      3758      3761      3764      3765
      3758      3761      3764      3766      3758      3761      3764      3767
      3759      3758      3761      3762      3759      3758      3761      3763
      3759      3758      3761      3764      3760      3758      3761      3762
      3760      3758      3761      3763      3760      3758      3761      3764
      3761      3764      3767      3768      3761      3764      3767      3769
      3761      3764      3767      3770      3762      3761      3764      3765
      3762      3761      3764      3766      3762      3761      3764      3767
      3763      3761      3764      3765      3763      3761      3764      3766
      3763      3761      3764      3767      3764      3767      3770      3771
      3764      3767      3770      3772      3764      3767      3770      3773
      3765      3764      3767      3768      3765      3764      3767      3769
      3765      3764      3767      3770      3766      3764      3767      3768
      3766      3764      3767      3769      3766      3764      3767      3770
      3767      3770      3773      3774      3767      3770      3773      3775
      3767      3770      3773      3776      3768      3767      3770      3771
      3768      3767      3770      3772      3768      3767      3770      3773
      3769      3767      3770      3771      3769      3767      3770      3772
      3769      3767      3770      3773      3770      3773      3776      3777
      3770      3773      3776      3778      3770      3773      3776      3779
      3771      3770      3773      3774      3771      3770      3773      3775
      3771      3770      3773      3776      3772      3770      3773      3774
      3772      3770      3773      3775      3772      3770      3773      3776
      3773      3776      3779      3780      3773      3776      3779      3781
      3773      3776      3779      3782      3774      3773      3776      3777
      3774      3773      3776      3778      3774      3773      3776      3779
      3775      3773      3776      3777      3775      3773      3776      3778
      3775      3773      3776      3779      3776      3779      3782      3783
      3776      3779      3782      3784      3776      3779      3782      3785
      3777      3776      3779      3780      3777      3776      3779      3781
      3777      3776      3779      3782      3778      3776      3779      3780
      3778      3776      3779      3781      3778      3776      3779      3782
      3779      3782      3785      3786      3779      3782      3785      3787
      3779      3782      3785      3788      3780      3779      3782      3783
      3780      3779      3782      3784      3780      3779      3782      3785
      3781      3779      3782      3783      3781      3779      3782      3784
      3781      3779      3782      3785      3782      3785      3788      3789
      3782      3785      3788      3790      3782      3785      3788      3791
      3783      3782      3785      3786      3783      3782      3785      3787
      3783      3782      3785      3788      3784      3782      3785      3786
      3784      3782      3785      3787      3784      3782      3785      3788
      3785      3788      3791      3792      3785      3788      3791      3793
      3785      3788      3791      3794      3786      3785      3788      3789
      3786      3785      3788      3790      3786      3785      3788      3791
      3787      3785      3788      3789      3787      3785      3788      3790
      3787      3785      3788      3791      3789      3788      3791      3792
      3789      3788      3791      3793      3789      3788      3791      3794
      3790      3788      3791      3792      3790      3788      3791      3793
      3790      3788      3791      3794      3795      3799      3802      3803
      3795      3799      3802      3833      3795      3841      3838      3833
      3795      3841      3838      3839      3795      3841      3838      3840
      3796      3795      3797      3798      3796      3795      3799      3800
      3796      3795      3799      3801      3796      3795      3799      3802
      3796      3795      3841      3838      3796      3795      3841      3842
      3796      3795      3841      3843      3797      3795      3799      3800
      3797      3795      3799      3801      3797      3795      3799      3802
      3797      3795      3841      3838      3797      3795      3841      3842
      3797      3795      3841      3843      3798      3797      3795      3799
      3798      3797      3795      3841      3799      3795      3841      3838
      3799      3795      3841      3842      3799      3795      3841      3843
      3799      3802      3803      3804      3799      3802      3803      3805
      3799      3802      3833      3831      3799      3802      3833      3834
      3799      3802      3833      3838      3800      3799      3795      3841
      3800      3799      3802      3803      3800      3799      3802      3833
      3801      3799      3795      3841      3801      3799      3802      3803
      3801      3799      3802      3833      3802      3799      3795      3841
      3802      3803      3805      3806      3802      3803      3805      3807
      3802      3803      3805      3808      3802      3833      3831      3808
      3802      3833      3831      3828      3802      3833      3831      3832
      3802      3833      3834      3835      3802      3833      3834      3836
      3802      3833      3834      3837      3802      3833      3838      3839
      3802      3833      3838      3840      3802      3833      3838      3841
      3803      3802      3833      3831      3803      3802      3833      3834
      3803      3802      3833      3838      3803      3805      3808      3809
      3803      3805      3808      3810      3803      3805      3808      3831
      3804      3803      3802      3833      3804      3803      3805      3806
      3804      3803      3805      3807      3804      3803      3805      3808
      3805      3803      3802      3833      3805      3808      3810      3811
      3805      3808      3810      3812      3805      3808      3810      3820
      3805      3808      3831      3828      3805      3808      3831      3832
      3805      3808      3831      3833      3806      3805      3808      3809
      3806      3805      3808      3810      3806      3805      3808      3831
      3807      3805      3808      3809      3807      3805      3808      3810
      3807      3805      3808      3831      3808      3810      3812      3813
      3808      3810      3812      3814      3808      3810      3812      3815
      3808      3810      3820      3818      3808      3810      3820      3821
      3808      3810      3820      3825      3808      3831      3828      3825
      3808      3831      3828      3829      3808      3831      3828      3830
      3808      3831      3833      3834      3808      3831      3833      3838
      3809      3808      3810      3811      3809      3808      3810      3812
      3809      3808      3810      3820      3809      3808      3831      3828
      3809      3808      3831      3832      3809      3808      3831      3833
      3810      3808      3831      3828      3810      3808      3831      3832
      3810      3808      3831      3833      3810      3812      3815      3816
      3810      3812      3815      3817      3810      3812      3815      3818
      3810      3820      3818      3815      3810      3820      3818      3819
      3810      3820      3818      3844      3810      3820      3821      3822
      3810      3820      3821      3823      3810      3820      3821      3824
      3810      3820      3825      3826      3810      3820      3825      3827
      3810      3820      3825      3828      3811      3810      3808      3831
      3811      3810      3812      3813      3811      3810      3812      3814
      3811      3810      3812      3815      3811      3810      3820      3818
      3811      3810      3820      3821      3811      3810      3820      3825
      3812      3810      3808      3831      3812      3810      3820      3818
      3812      3810      3820      3821      3812      3810      3820      3825
      3812      3815      3818      3819      3812      3815      3818      3820
      3812      3815      3818      3844      3813      3812      3810      3820
      3813      3812      3815      3816      3813      3812      3815      3817
      3813      3812      3815      3818      3814      3812      3810      3820
      3814      3812      3815      3816      3814      3812      3815      3817
      3814      3812      3815      3818      3815      3812      3810      3820
      3815      3818      3820      3821      3815      3818      3820      3825
      3815      3818      3844      3845      3815      3818      3844      3846
      3815      3818      3844      3850      3816      3815      3818      3819
      3816      3815      3818      3820      3816      3815      3818      3844
      3817      3815      3818      3819      3817      3815      3818      3820
      3817      3815      3818      3844      3818      3820      3821      3822
      3818      3820      3821      3823      3818      3820      3821      3824
      3818      3820      3825      3826      3818      3820      3825      3827
      3818      3820      3825      3828      3818      3844      3846      3847
      3818      3844      3846      3848      3818      3844      3846      3849
      3818      3844      3850      3851      3818      3844      3850      3852
      3818      3844      3850      3853      3819      3818      3820      3821
      3819      3818      3820      3825      3819      3818      3844      3845
      3819      3818      3844      3846      3819      3818      3844      3850
      3820      3810      3808      3831      3820      3818      3844      3845
      3820      3818      3844      3846      3820      3818      3844      3850
      3820      3825      3828      3829      3820      3825      3828      3830
      3820      3825      3828      3831      3821      3820      3818      3844
      3821      3820      3825      3826      3821      3820      3825      3827
      3821      3820      3825      3828      3822      3821      3820      3825
      3823      3821      3820      3825      3824      3821      3820      3825
      3825      3820      3818      3844      3825      3828      3831      3832
      3825      3828      3831      3833      3826      3825      3828      3829
      3826      3825      3828      3830      3826      3825      3828      3831
      3827      3825      3828      3829      3827      3825      3828      3830
      3827      3825      3828      3831      3828      3831      3833      3834
      3828      3831      3833      3838      3829      3828      3831      3832
      3829      3828      3831      3833      3830      3828      3831      3832
      3830      3828      3831      3833      3831      3833      3834      3835
      3831      3833      3834      3836      3831      3833      3834      3837
      3831      3833      3838      3839      3831      3833      3838      3840
      3831      3833      3838      3841      3832      3831      3833      3834
      3832      3831      3833      3838      3833      3838      3841      3842
      3833      3838      3841      3843      3834      3833      3838      3839
      3834      3833      3838      3840      3834      3833      3838      3841
      3835      3834      3833      3838      3836      3834      3833      3838
      3837      3834      3833      3838      3839      3838      3841      3842
      3839      3838      3841      3843      3840      3838      3841      3842
      3840      3838      3841      3843      3844      3850      3853      3854
      3844      3850      3853      3855      3844      3850      3853      3856
      3845      3844      3846      3847      3845      3844      3846      3848
      3845      3844      3846      3849      3845      3844      3850      3851
      3845      3844      3850      3852      3845      3844      3850      3853
      3846      3844      3850      3851      3846      3844      3850      3852
      3846      3844      3850      3853      3847      3846      3844      3850
      3848      3846      3844      3850      3849      3846      3844      3850
      3850      3853      3856      3857      3850      3853      3856      3858
      3850      3853      3856      3859      3851      3850      3853      3854
      3851      3850      3853      3855      3851      3850      3853      3856
      3852      3850      3853      3854      3852      3850      3853      3855
      3852      3850      3853      3856      3853      3856      3859      3860
      3853      3856      3859      3861      3853      3856      3859      3865
      3854      3853      3856      3857      3854      3853      3856      3858
      3854      3853      3856      3859      3855      3853      3856      3857
      3855      3853      3856      3858      3855      3853      3856      3859
      3856      3859      3861      3862      3856      3859      3861      3863
      3856      3859      3861      3864      3856      3859      3865      3866
      3856      3859      3865      3867      3856      3859      3865      3868
      3857      3856      3859      3860      3857      3856      3859      3861
      3857      3856      3859      3865      3858      3856      3859      3860
      3858      3856      3859      3861      3858      3856      3859      3865
      3860      3859      3861      3862      3860      3859      3861      3863
      3860      3859      3861      3864      3860      3859      3865      3866
      3860      3859      3865      3867      3860      3859      3865      3868
      3861      3859      3865      3866      3861      3859      3865      3867
      3861      3859      3865      3868      3862      3861      3859      3865
      3863      3861      3859      3865      3864      3861      3859      3865
      3869      3873      3876      3877      3869      3873      3876      3907
      3869      3915      3912      3907      3869      3915      3912      3913
      3869      3915      3912      3914      3870      3869      3871      3872
      3870      3869      3873      3874      3870      3869      3873      3875
      3870      3869      3873      3876      3870      3869      3915      3912
      3870      3869      3915      3916      3870      3869      3915      3917
      3871      3869      3873      3874      3871      3869      3873      3875
      3871      3869      3873      3876      3871      3869      3915      3912
      3871      3869      3915      3916      3871      3869      3915      3917
      3872      3871      3869      3873      3872      3871      3869      3915
      3873      3869      3915      3912      3873      3869      3915      3916
      3873      3869      3915      3917      3873      3876      3877      3878
      3873      3876      3877      3879      3873      3876      3907      3905
      3873      3876      3907      3908      3873      3876      3907      3912
      3874      3873      3869      3915      3874      3873      3876      3877
      3874      3873      3876      3907      3875      3873      3869      3915
      3875      3873      3876      3877      3875      3873      3876      3907
      3876      3873      3869      3915      3876      3877      3879      3880
      3876      3877      3879      3881      3876      3877      3879      3882
      3876      3907      3905      3882      3876      3907      3905      3902
      3876      3907      3905      3906      3876      3907      3908      3909
      3876      3907      3908      3910      3876      3907      3908      3911
      3876      3907      3912      3913      3876      3907      3912      3914
      3876      3907      3912      3915      3877      3876      3907      3905
      3877      3876      3907      3908      3877      3876      3907      3912
      3877      3879      3882      3883      3877      3879      3882      3884
      3877      3879      3882      3905      3878      3877      3876      3907
      3878      3877      3879      3880      3878      3877      3879      3881
      3878      3877      3879      3882      3879      3877      3876      3907
      3879      3882      3884      3885      3879      3882      3884      3886
      3879      3882      3884      3894      3879      3882      3905      3902
      3879      3882      3905      3906      3879      3882      3905      3907
      3880      3879      3882      3883      3880      3879      3882      3884
      3880      3879      3882      3905      3881      3879      3882      3883
      3881      3879      3882      3884      3881      3879      3882      3905
      3882      3884      3886      3887      3882      3884      3886      3888
      3882      3884      3886      3889      3882      3884      3894      3892
      3882      3884      3894      3895      3882      3884      3894      3899
      3882      3905      3902      3899      3882      3905      3902      3903
      3882      3905      3902      3904      3882      3905      3907      3908
      3882      3905      3907      3912      3883      3882      3884      3885
      3883      3882      3884      3886      3883      3882      3884      3894
      3883      3882      3905      3902      3883      3882      3905      3906
      3883      3882      3905      3907      3884      3882      3905      3902
      3884      3882      3905      3906      3884      3882      3905      3907
      3884      3886      3889      3890      3884      3886      3889      3891
      3884      3886      3889      3892      3884      3894      3892      3889
      3884      3894      3892      3893      3884      3894      3892      3918
      3884      3894      3895      3896      3884      3894      3895      3897
      3884      3894      3895      3898      3884      3894      3899      3900
      3884      3894      3899      3901      3884      3894      3899      3902
      3885      3884      3882      3905      3885      3884      3886      3887
      3885      3884      3886      3888      3885      3884      3886      3889
      3885      3884      3894      3892      3885      3884      3894      3895
      3885      3884      3894      3899      3886      3884      3882      3905
      3886      3884      3894      3892      3886      3884      3894      3895
      3886      3884      3894      3899      3886      3889      3892      3893
      3886      3889      3892      3894      3886      3889      3892      3918
      3887      3886      3884      3894      3887      3886      3889      3890
      3887      3886      3889      3891      3887      3886      3889      3892
      3888      3886      3884      3894      3888      3886      3889      3890
      3888      3886      3889      3891      3888      3886      3889      3892
      3889      3886      3884      3894      3889      3892      3894      3895
      3889      3892      3894      3899      3889      3892      3918      3919
      3889      3892      3918      3920      3889      3892      3918      3924
      3890      3889      3892      3893      3890      3889      3892      3894
      3890      3889      3892      3918      3891      3889      3892      3893
      3891      3889      3892      3894      3891      3889      3892      3918
      3892      3894      3895      3896      3892      3894      3895      3897
      3892      3894      3895      3898      3892      3894      3899      3900
      3892      3894      3899      3901      3892      3894      3899      3902
      3892      3918      3920      3921      3892      3918      3920      3922
      3892      3918      3920      3923      3892      3918      3924      3925
      3892      3918      3924      3926      3892      3918      3924      3927
      3893      3892      3894      3895      3893      3892      3894      3899
      3893      3892      3918      3919      3893      3892      3918      3920
      3893      3892      3918      3924      3894      3884      3882      3905
      3894      3892      3918      3919      3894      3892      3918      3920
      3894      3892      3918      3924      3894      3899      3902      3903
      3894      3899      3902      3904      3894      3899      3902      3905
      3895      3894      3892      3918      3895      3894      3899      3900
      3895      3894      3899      3901      3895      3894      3899      3902
      3896      3895      3894      3899      3897      3895      3894      3899
      3898      3895      3894      3899      3899      3894      3892      3918
      3899      3902      3905      3906      3899      3902      3905      3907
      3900      3899      3902      3903      3900      3899      3902      3904
      3900      3899      3902      3905      3901      3899      3902      3903
      3901      3899      3902      3904      3901      3899      3902      3905
      3902      3905      3907      3908      3902      3905      3907      3912
      3903      3902      3905      3906      3903      3902      3905      3907
      3904      3902      3905      3906      3904      3902      3905      3907
      3905      3907      3908      3909      3905      3907      3908      3910
      3905      3907      3908      3911      3905      3907      3912      3913
      3905      3907      3912      3914      3905      3907      3912      3915
      3906      3905      3907      3908      3906      3905      3907      3912
      3907      3912      3915      3916      3907      3912      3915      3917
      3908      3907      3912      3913      3908      3907      3912      3914
      3908      3907      3912      3915      3909      3908      3907      3912
      3910      3908      3907      3912      3911      3908      3907      3912
      3913      3912      3915      3916      3913      3912      3915      3917
      3914      3912      3915      3916      3914      3912      3915      3917
      3918      3924      3927      3928      3918      3924      3927      3929
      3918      3924      3927      3930      3919      3918      3920      3921
      3919      3918      3920      3922      3919      3918      3920      3923
      3919      3918      3924      3925      3919      3918      3924      3926
      3919      3918      3924      3927      3920      3918      3924      3925
      3920      3918      3924      3926      3920      3918      3924      3927
      3921      3920      3918      3924      3922      3920      3918      3924
      3923      3920      3918      3924      3924      3927      3930      3931
      3924      3927      3930      3932      3924      3927      3930      3933
      3925      3924      3927      3928      3925      3924      3927      3929
      3925      3924      3927      3930      3926      3924      3927      3928
      3926      3924      3927      3929      3926      3924      3927      3930
      3927      3930      3933      3934      3927      3930      3933      3935
      3927      3930      3933      3939      3928      3927      3930      3931
      3928      3927      3930      3932      3928      3927      3930      3933
      3929      3927      3930      3931      3929      3927      3930      3932
      3929      3927      3930      3933      3930      3933      3935      3936
      3930      3933      3935      3937      3930      3933      3935      3938
      3930      3933      3939      3940      3930      3933      3939      3941
      3930      3933      3939      3942      3931      3930      3933      3934
      3931      3930      3933      3935      3931      3930      3933      3939
      3932      3930      3933      3934      3932      3930      3933      3935
      3932      3930      3933      3939      3934      3933      3935      3936
      3934      3933      3935      3937      3934      3933      3935      3938
      3934      3933      3939      3940      3934      3933      3939      3941
      3934      3933      3939      3942      3935      3933      3939      3940
      3935      3933      3939      3941      3935      3933      3939      3942
      3936      3935      3933      3939      3937      3935      3933      3939
      3938      3935      3933      3939      3943      3947      3949      3950
      3943      3947      3949      3951      3943      3947      3952      3953
      3943      3947      3952      3954      3943      3947      3952      3958
      3944      3943      3947      3948      3944      3943      3947      3949
      3944      3943      3947      3952      3945      3943      3947      3948
      3945      3943      3947      3949      3945      3943      3947      3952
      3946      3943      3947      3948      3946      3943      3947      3949
      3946      3943      3947      3952      3947      3952      3958      3955
      3948      3947      3949      3950      3948      3947      3949      3951
      3948      3947      3952      3953      3948      3947      3952      3954
      3948      3947      3952      3958      3949      3947      3952      3953
      3949      3947      3952      3954      3949      3947      3952      3958
      3950      3949      3947      3952      3951      3949      3947      3952
      3952      3958      3955      3956      3952      3958      3955      3957
      3952      3958      3955      3959      3953      3952      3958      3955
      3954      3952      3958      3955      3955      3959      3960      3961
      3955      3959      3960      3962      3955      3959      3960      3963
      3956      3955      3959      3960      3957      3955      3959      3960
      3958      3955      3959      3960      3959      3960      3963      3964
      3959      3960      3963      3965      3959      3960      3963      3971
      3960      3963      3965      3966      3960      3963      3971      3972
      3960      3963      3971      3973      3960      3963      3971      3974
      3961      3960      3963      3964      3961      3960      3963      3965
      3961      3960      3963      3971      3962      3960      3963      3964
      3962      3960      3963      3965      3962      3960      3963      3971
      3963      3965      3966      3967      3963      3965      3966      3968
      3963      3971      3974      3975      3964      3963      3965      3966
      3964      3963      3971      3972      3964      3963      3971      3973
      3964      3963      3971      3974      3965      3963      3971      3972
      3965      3963      3971      3973      3965      3963      3971      3974
      3965      3966      3968      3969      3965      3966      3968      3970
      3965      3966      3968      3980      3966      3965      3963      3971
      3966      3968      3980      3981      3966      3968      3980      3982
      3966      3968      3980      3983      3967      3966      3968      3969
      3967      3966      3968      3970      3967      3966      3968      3980
      3968      3980      3983      3984      3968      3980      3983      3985
      3968      3980      3983      3986      3969      3968      3980      3981
      3969      3968      3980      3982      3969      3968      3980      3983
      3970      3968      3980      3981      3970      3968      3980      3982
      3970      3968      3980      3983      3971      3974      3975      3976
      3971      3974      3975      3977      3972      3971      3974      3975
      3973      3971      3974      3975      3974      3975      3977      3978
      3974      3975      3977      3979      3974      3975      3977      4027
      3975      3977      4027      4028      3975      3977      4027      4029
      3975      3977      4027      4030      3976      3975      3977      3978
      3976      3975      3977      3979      3976      3975      3977      4027
      3977      4027      4030      4031      3977      4027      4030      4032
      3977      4027      4030      4033      3978      3977      4027      4028
      3978      3977      4027      4029      3978      3977      4027      4030
      3979      3977      4027      4028      3979      3977      4027      4029
      3979      3977      4027      4030      3980      3983      3986      3987
      3980      3983      3986      3988      3981      3980      3983      3984
      3981      3980      3983      3985      3981      3980      3983      3986
      3982      3980      3983      3984      3982      3980      3983      3985
      3982      3980      3983      3986      3983      3986      3988      3989
      3983      3986      3988      3990      3984      3983      3986      3987
      3984      3983      3986      3988      3985      3983      3986      3987
      3985      3983      3986      3988      3986      3988      3990      3991
      3986      3988      3990      3992      3986      3988      3990      3993
      3987      3986      3988      3989      3987      3986      3988      3990
      3988      3990      3993      3994      3988      3990      3993      3995
      3989      3988      3990      3991      3989      3988      3990      3992
      3989      3988      3990      3993      3990      3993      3995      3996
      3990      3993      3995      3997      3991      3990      3993      3994
      3991      3990      3993      3995      3992      3990      3993      3994
      3992      3990      3993      3995      3993      3995      3997      3998
      3993      3995      3997      3999      3993      3995      3997      4000
      3994      3993      3995      3996      3994      3993      3995      3997
      3995      3997      4000      4001      3995      3997      4000      4002
      3996      3995      3997      3998      3996      3995      3997      3999
      3996      3995      3997      4000      3997      4000      4002      4003
      3997      4000      4002      4004      3998      3997      4000      4001
      3998      3997      4000      4002      3999      3997      4000      4001
      3999      3997      4000      4002      4000      4002      4004      4005
      4000      4002      4004      4006      4000      4002      4004      4007
      4001      4000      4002      4003      4001      4000      4002      4004
      4002      4004      4007      4008      4002      4004      4007      4009
      4003      4002      4004      4005      4003      4002      4004      4006
      4003      4002      4004      4007      4004      4007      4009      4010
      4004      4007      4009      4011      4005      4004      4007      4008
      4005      4004      4007      4009      4006      4004      4007      4008
      4006      4004      4007      4009      4007      4009      4011      4012
      4007      4009      4011      4013      4007      4009      4011      4014
      4008      4007      4009      4010      4008      4007      4009      4011
      4009      4011      4014      4015      4009      4011      4014      4016
      4009      4011      4014      4017      4010      4009      4011      4012
      4010      4009      4011      4013      4010      4009      4011      4014
      4011      4014      4017      4018      4011      4014      4017      4019
      4011      4014      4017      4020      4012      4011      4014      4015
      4012      4011      4014      4016      4012      4011      4014      4017
      4013      4011      4014      4015      4013      4011      4014      4016
      4013      4011      4014      4017      4014      4017      4020      4021
      4014      4017      4020      4022      4014      4017      4020      4023
      4015      4014      4017      4018      4015      4014      4017      4019
      4015      4014      4017      4020      4016      4014      4017      4018
      4016      4014      4017      4019      4016      4014      4017      4020
      4017      4020      4023      4024      4017      4020      4023      4025
      4017      4020      4023      4026      4018      4017      4020      4021
      4018      4017      4020      4022      4018      4017      4020      4023
      4019      4017      4020      4021      4019      4017      4020      4022
      4019      4017      4020      4023      4021      4020      4023      4024
      4021      4020      4023      4025      4021      4020      4023      4026
      4022      4020      4023      4024      4022      4020      4023      4025
      4022      4020      4023      4026      4027      4030      4033      4034
      4027      4030      4033      4035      4027      4030      4033      4036
      4028      4027      4030      4031      4028      4027      4030      4032
      4028      4027      4030      4033      4029      4027      4030      4031
      4029      4027      4030      4032      4029      4027      4030      4033
      4030      4033      4036      4037      4030      4033      4036      4038
      4030      4033      4036      4039      4031      4030      4033      4034
      4031      4030      4033      4035      4031      4030      4033      4036
      4032      4030      4033      4034      4032      4030      4033      4035
      4032      4030      4033      4036      4033      4036      4039      4040
      4033      4036      4039      4041      4033      4036      4039      4042
      4034      4033      4036      4037      4034      4033      4036      4038
      4034      4033      4036      4039      4035      4033      4036      4037
      4035      4033      4036      4038      4035      4033      4036      4039
      4036      4039      4042      4043      4036      4039      4042      4044
      4036      4039      4042      4045      4037      4036      4039      4040
      4037      4036      4039      4041      4037      4036      4039      4042
      4038      4036      4039      4040      4038      4036      4039      4041
      4038      4036      4039      4042      4039      4042      4045      4046
      4039      4042      4045      4047      4039      4042      4045      4048
      4040      4039      4042      4043      4040      4039      4042      4044
      4040      4039      4042      4045      4041      4039      4042      4043
      4041      4039      4042      4044      4041      4039      4042      4045
      4042      4045      4048      4049      4042      4045      4048      4050
      4042      4045      4048      4051      4043      4042      4045      4046
      4043      4042      4045      4047      4043      4042      4045      4048
      4044      4042      4045      4046      4044      4042      4045      4047
      4044      4042      4045      4048      4045      4048      4051      4052
      4045      4048      4051      4053      4045      4048      4051      4054
      4046      4045      4048      4049      4046      4045      4048      4050
      4046      4045      4048      4051      4047      4045      4048      4049
      4047      4045      4048      4050      4047      4045      4048      4051
      4048      4051      4054      4055      4048      4051      4054      4056
      4048      4051      4054      4057      4049      4048      4051      4052
      4049      4048      4051      4053      4049      4048      4051      4054
      4050      4048      4051      4052      4050      4048      4051      4053
      4050      4048      4051      4054      4051      4054      4057      4058
      4051      4054      4057      4059      4051      4054      4057      4060
      4052      4051      4054      4055      4052      4051      4054      4056
      4052      4051      4054      4057      4053      4051      4054      4055
      4053      4051      4054      4056      4053      4051      4054      4057
      4054      4057      4060      4061      4054      4057      4060      4062
      4054      4057      4060      4063      4055      4054      4057      4058
      4055      4054      4057      4059      4055      4054      4057      4060
      4056      4054      4057      4058      4056      4054      4057      4059
      4056      4054      4057      4060      4057      4060      4063      4064
      4057      4060      4063      4065      4057      4060      4063      4066
      4058      4057      4060      4061      4058      4057      4060      4062
      4058      4057      4060      4063      4059      4057      4060      4061
      4059      4057      4060      4062      4059      4057      4060      4063
      4060      4063      4066      4067      4060      4063      4066      4068
      4060      4063      4066      4069      4061      4060      4063      4064
      4061      4060      4063      4065      4061      4060      4063      4066
      4062      4060      4063      4064      4062      4060      4063      4065
      4062      4060      4063      4066      4063      4066      4069      4070
      4063      4066      4069      4071      4063      4066      4069      4072
      4064      4063      4066      4067      4064      4063      4066      4068
      4064      4063      4066      4069      4065      4063      4066      4067
      4065      4063      4066      4068      4065      4063      4066      4069
      4066      4069      4072      4073      4066      4069      4072      4074
      4066      4069      4072      4075      4067      4066      4069      4070
      4067      4066      4069      4071      4067      4066      4069      4072
      4068      4066      4069      4070      4068      4066      4069      4071
      4068      4066      4069      4072      4070      4069      4072      4073
      4070      4069      4072      4074      4070      4069      4072      4075
      4071      4069      4072      4073      4071      4069      4072      4074
      4071      4069      4072      4075      4076      4080      4083      4084
      4076      4080      4083      4085      4076      4080      4083      4089
      4077      4076      4080      4081      4077      4076      4080      4082
      4077      4076      4080      4083      4078      4076      4080      4081
      4078      4076      4080      4082      4078      4076      4080      4083
      4079      4076      4080      4081      4079      4076      4080      4082
      4079      4076      4080      4083      4080      4083      4089      4086
      4081      4080      4083      4084      4081      4080      4083      4085
      4081      4080      4083      4089      4082      4080      4083      4084
      4082      4080      4083      4085      4082      4080      4083      4089
      4083      4089      4086      4087      4083      4089      4086      4088
      4083      4089      4086      4090      4084      4083      4089      4086
      4085      4083      4089      4086      4086      4090      4091      4092
      4086      4090      4091      4093      4086      4090      4091      4094
      4087      4086      4090      4091      4088      4086      4090      4091
      4089      4086      4090      4091      4090      4091      4094      4095
      4090      4091      4094      4096      4090      4091      4094      4102
      4091      4094      4096      4097      4091      4094      4102      4103
      4091      4094      4102      4104      4091      4094      4102      4105
      4092      4091      4094      4095      4092      4091      4094      4096
      4092      4091      4094      4102      4093      4091      4094      4095
      4093      4091      4094      4096      4093      4091      4094      4102
      4094      4096      4097      4098      4094      4096      4097      4099
      4094      4102      4105      4106      4095      4094      4096      4097
      4095      4094      4102      4103      4095      4094      4102      4104
      4095      4094      4102      4105      4096      4094      4102      4103
      4096      4094      4102      4104      4096      4094      4102      4105
      4096      4097      4099      4100      4096      4097      4099      4101
      4096      4097      4099      4111      4097      4096      4094      4102
      4097      4099      4111      4112      4097      4099      4111      4113
      4097      4099      4111      4114      4098      4097      4099      4100
      4098      4097      4099      4101      4098      4097      4099      4111
      4099      4111      4114      4115      4099      4111      4114      4116
      4099      4111      4114      4117      4100      4099      4111      4112
      4100      4099      4111      4113      4100      4099      4111      4114
      4101      4099      4111      4112      4101      4099      4111      4113
      4101      4099      4111      4114      4102      4105      4106      4107
      4102      4105      4106      4108      4103      4102      4105      4106
      4104      4102      4105      4106      4105      4106      4108      4109
      4105      4106      4108      4110      4105      4106      4108      4158
      4106      4108      4158      4159      4106      4108      4158      4160
      4106      4108      4158      4161      4107      4106      4108      4109
      4107      4106      4108      4110      4107      4106      4108      4158
      4108      4158      4161      4162      4108      4158      4161      4163
      4108      4158      4161      4164      4109      4108      4158      4159
      4109      4108      4158      4160      4109      4108      4158      4161
      4110      4108      4158      4159      4110      4108      4158      4160
      4110      4108      4158      4161      4111      4114      4117      4118
      4111      4114      4117      4119      4112      4111      4114      4115
      4112      4111      4114      4116      4112      4111      4114      4117
      4113      4111      4114      4115      4113      4111      4114      4116
      4113      4111      4114      4117      4114      4117      4119      4120
      4114      4117      4119      4121      4115      4114      4117      4118
      4115      4114      4117      4119      4116      4114      4117      4118
      4116      4114      4117      4119      4117      4119      4121      4122
      4117      4119      4121      4123      4117      4119      4121      4124
      4118      4117      4119      4120      4118      4117      4119      4121
      4119      4121      4124      4125      4119      4121      4124      4126
      4120      4119      4121      4122      4120      4119      4121      4123
      4120      4119      4121      4124      4121      4124      4126      4127
      4121      4124      4126      4128      4122      4121      4124      4125
      4122      4121      4124      4126      4123      4121      4124      4125
      4123      4121      4124      4126      4124      4126      4128      4129
      4124      4126      4128      4130      4124      4126      4128      4131
      4125      4124      4126      4127      4125      4124      4126      4128
      4126      4128      4131      4132      4126      4128      4131      4133
      4127      4126      4128      4129      4127      4126      4128      4130
      4127      4126      4128      4131      4128      4131      4133      4134
      4128      4131      4133      4135      4129      4128      4131      4132
      4129      4128      4131      4133      4130      4128      4131      4132
      4130      4128      4131      4133      4131      4133      4135      4136
      4131      4133      4135      4137      4131      4133      4135      4138
      4132      4131      4133      4134      4132      4131      4133      4135
      4133      4135      4138      4139      4133      4135      4138      4140
      4134      4133      4135      4136      4134      4133      4135      4137
      4134      4133      4135      4138      4135      4138      4140      4141
      4135      4138      4140      4142      4136      4135      4138      4139
      4136      4135      4138      4140      4137      4135      4138      4139
      4137      4135      4138      4140      4138      4140      4142      4143
      4138      4140      4142      4144      4138      4140      4142      4145
      4139      4138      4140      4141      4139      4138      4140      4142
      4140      4142      4145      4146      4140      4142      4145      4147
      4140      4142      4145      4148      4141      4140      4142      4143
      4141      4140      4142      4144      4141      4140      4142      4145
      4142      4145      4148      4149      4142      4145      4148      4150
      4142      4145      4148      4151      4143      4142      4145      4146
      4143      4142      4145      4147      4143      4142      4145      4148
      4144      4142      4145      4146      4144      4142      4145      4147
      4144      4142      4145      4148      4145      4148      4151      4152
      4145      4148      4151      4153      4145      4148      4151      4154
      4146      4145      4148      4149      4146      4145      4148      4150
      4146      4145      4148      4151      4147      4145      4148      4149
      4147      4145      4148      4150      4147      4145      4148      4151
      4148      4151      4154      4155      4148      4151      4154      4156
      4148      4151      4154      4157      4149      4148      4151      4152
      4149      4148      4151      4153      4149      4148      4151      4154
      4150      4148      4151      4152      4150      4148      4151      4153
      4150      4148      4151      4154      4152      4151      4154      4155
      4152      4151      4154      4156      4152      4151      4154      4157
      4153      4151      4154      4155      4153      4151      4154      4156
      4153      4151      4154      4157      4158      4161      4164      4165
      4158      4161      4164      4166      4158      4161      4164      4167
      4159      4158      4161      4162      4159      4158      4161      4163
      4159      4158      4161      4164      4160      4158      4161      4162
      4160      4158      4161      4163      4160      4158      4161      4164
      4161      4164      4167      4168      4161      4164      4167      4169
      4161      4164      4167      4170      4162      4161      4164      4165
      4162      4161      4164      4166      4162      4161      4164      4167
      4163      4161      4164      4165      4163      4161      4164      4166
      4163      4161      4164      4167      4164      4167      4170      4171
      4164      4167      4170      4172      4164      4167      4170      4173
      4165      4164      4167      4168      4165      4164      4167      4169
      4165      4164      4167      4170      4166      4164      4167      4168
      4166      4164      4167      4169      4166      4164      4167      4170
      4167      4170      4173      4174      4167      4170      4173      4175
      4167      4170      4173      4176      4168      4167      4170      4171
      4168      4167      4170      4172      4168      4167      4170      4173
      4169      4167      4170      4171      4169      4167      4170      4172
      4169      4167      4170      4173      4170      4173      4176      4177
      4170      4173      4176      4178      4170      4173      4176      4179
      4171      4170      4173      4174      4171      4170      4173      4175
      4171      4170      4173      4176      4172      4170      4173      4174
      4172      4170      4173      4175      4172      4170      4173      4176
      4173      4176      4179      4180      4173      4176      4179      4181
      4173      4176      4179      4182      4174      4173      4176      4177
      4174      4173      4176      4178      4174      4173      4176      4179
      4175      4173      4176      4177      4175      4173      4176      4178
      4175      4173      4176      4179      4176      4179      4182      4183
      4176      4179      4182      4184      4176      4179      4182      4185
      4177      4176      4179      4180      4177      4176      4179      4181
      4177      4176      4179      4182      4178      4176      4179      4180
      4178      4176      4179      4181      4178      4176      4179      4182
      4179      4182      4185      4186      4179      4182      4185      4187
      4179      4182      4185      4188      4180      4179      4182      4183
      4180      4179      4182      4184      4180      4179      4182      4185
      4181      4179      4182      4183      4181      4179      4182      4184
      4181      4179      4182      4185      4182      4185      4188      4189
      4182      4185      4188      4190      4182      4185      4188      4191
      4183      4182      4185      4186      4183      4182      4185      4187
      4183      4182      4185      4188      4184      4182      4185      4186
      4184      4182      4185      4187      4184      4182      4185      4188
      4185      4188      4191      4192      4185      4188      4191      4193
      4185      4188      4191      4194      4186      4185      4188      4189
      4186      4185      4188      4190      4186      4185      4188      4191
      4187      4185      4188      4189      4187      4185      4188      4190
      4187      4185      4188      4191      4188      4191      4194      4195
      4188      4191      4194      4196      4188      4191      4194      4197
      4189      4188      4191      4192      4189      4188      4191      4193
      4189      4188      4191      4194      4190      4188      4191      4192
      4190      4188      4191      4193      4190      4188      4191      4194
      4191      4194      4197      4198      4191      4194      4197      4199
      4191      4194      4197      4200      4192      4191      4194      4195
      4192      4191      4194      4196      4192      4191      4194      4197
      4193      4191      4194      4195      4193      4191      4194      4196
      4193      4191      4194      4197      4194      4197      4200      4201
      4194      4197      4200      4202      4194      4197      4200      4203
      4195      4194      4197      4198      4195      4194      4197      4199
      4195      4194      4197      4200      4196      4194      4197      4198
      4196      4194      4197      4199      4196      4194      4197      4200
      4197      4200      4203      4204      4197      4200      4203      4205
      4197      4200      4203      4206      4198      4197      4200      4201
      4198      4197      4200      4202      4198      4197      4200      4203
      4199      4197      4200      4201      4199      4197      4200      4202
      4199      4197      4200      4203      4201      4200      4203      4204
      4201      4200      4203      4205      4201      4200      4203      4206
      4202      4200      4203      4204      4202      4200      4203      4205
      4202      4200      4203      4206      4207      4208      4223      4224
      4207      4208      4223      4225      4207      4208      4223      4229
      4208      4207      4211      4212      4208      4207      4211      4213
      4208      4207      4211      4214      4208      4207      4215      4216
      4208      4207      4215      4217      4208      4207      4215      4218
      4208      4207      4219      4220      4208      4207      4219      4221
      4208      4207      4219      4222      4208      4223      4229      4226
      4209      4208      4207      4211      4209      4208      4207      4215
      4209      4208      4207      4219      4209      4208      4223      4224
      4209      4208      4223      4225      4209      4208      4223      4229
      4210      4208      4207      4211      4210      4208      4207      4215
      4210      4208      4207      4219      4210      4208      4223      4224
      4210      4208      4223      4225      4210      4208      4223      4229
      4211      4207      4208      4223      4211      4207      4215      4216
      4211      4207      4215      4217      4211      4207      4215      4218
      4211      4207      4219      4220      4211      4207      4219      4221
      4211      4207      4219      4222      4212      4211      4207      4215
      4212      4211      4207      4219      4213      4211      4207      4215
      4213      4211      4207      4219      4214      4211      4207      4215
      4214      4211      4207      4219      4215      4207      4208      4223
      4215      4207      4219      4220      4215      4207      4219      4221
      4215      4207      4219      4222      4216      4215      4207      4219
      4217      4215      4207      4219      4218      4215      4207      4219
      4219      4207      4208      4223      4223      4229      4226      4227
      4223      4229      4226      4228      4223      4229      4226      4230
      4224      4223      4229      4226      4225      4223      4229      4226
      4226      4230      4231      4232      4226      4230      4231      4233
      4226      4230      4231      4234      4227      4226      4230      4231
      4228      4226      4230      4231      4229      4226      4230      4231
      4230      4231      4234      4235      4230      4231      4234      4236
      4230      4231      4234      4242      4231      4234      4236      4237
      4231      4234      4242      4243      4231      4234      4242      4244
      4231      4234      4242      4245      4232      4231      4234      4235
      4232      4231      4234      4236      4232      4231      4234      4242
      4233      4231      4234      4235      4233      4231      4234      4236
      4233      4231      4234      4242      4234      4236      4237      4238
      4234      4236      4237      4239      4234      4242      4245      4246
      4235      4234      4236      4237      4235      4234      4242      4243
      4235      4234      4242      4244      4235      4234      4242      4245
      4236      4234      4242      4243      4236      4234      4242      4244
      4236      4234      4242      4245      4236      4237      4239      4240
      4236      4237      4239      4241      4236      4237      4239      4251
      4237      4236      4234      4242      4237      4239      4251      4252
      4237      4239      4251      4253      4237      4239      4251      4254
      4238      4237      4239      4240      4238      4237      4239      4241
      4238      4237      4239      4251      4239      4251      4254      4255
      4239      4251      4254      4256      4239      4251      4254      4257
      4240      4239      4251      4252      4240      4239      4251      4253
      4240      4239      4251      4254      4241      4239      4251      4252
      4241      4239      4251      4253      4241      4239      4251      4254
      4242      4245      4246      4247      4242      4245      4246      4248
      4243      4242      4245      4246      4244      4242      4245      4246
      4245      4246      4248      4249      4245      4246      4248      4250
      4245      4246      4248      4298      4246      4248      4298      4299
      4246      4248      4298      4300      4246      4248      4298      4301
      4247      4246      4248      4249      4247      4246      4248      4250
      4247      4246      4248      4298      4248      4298      4301      4302
      4248      4298      4301      4303      4248      4298      4301      4304
      4249      4248      4298      4299      4249      4248      4298      4300
      4249      4248      4298      4301      4250      4248      4298      4299
      4250      4248      4298      4300      4250      4248      4298      4301
      4251      4254      4257      4258      4251      4254      4257      4259
      4251      4254      4257      4260      4252      4251      4254      4255
      4252      4251      4254      4256      4252      4251      4254      4257
      4253      4251      4254      4255      4253      4251      4254      4256
      4253      4251      4254      4257      4254      4257      4260      4261
      4254      4257      4260      4262      4254      4257      4260      4263
      4255      4254      4257      4258      4255      4254      4257      4259
      4255      4254      4257      4260      4256      4254      4257      4258
      4256      4254      4257      4259      4256      4254      4257      4260
      4257      4260      4263      4264      4257      4260      4263      4265
      4257      4260      4263      4266      4258      4257      4260      4261
      4258      4257      4260      4262      4258      4257      4260      4263
      4259      4257      4260      4261      4259      4257      4260      4262
      4259      4257      4260      4263      4260      4263      4266      4267
      4260      4263      4266      4268      4260      4263      4266      4269
      4261      4260      4263      4264      4261      4260      4263      4265
      4261      4260      4263      4266      4262      4260      4263      4264
      4262      4260      4263      4265      4262      4260      4263      4266
      4263      4266      4269      4270      4263      4266      4269      4271
      4264      4263      4266      4267      4264      4263      4266      4268
      4264      4263      4266      4269      4265      4263      4266      4267
      4265      4263      4266      4268      4265      4263      4266      4269
      4266      4269      4271      4272      4266      4269      4271      4273
      4267      4266      4269      4270      4267      4266      4269      4271
      4268      4266      4269      4270      4268      4266      4269      4271
      4269      4271      4273      4274      4269      4271      4273      4275
      4269      4271      4273      4276      4270      4269      4271      4272
      4270      4269      4271      4273      4271      4273      4276      4277
      4271      4273      4276      4278      4271      4273      4276      4279
      4272      4271      4273      4274      4272      4271      4273      4275
      4272      4271      4273      4276      4273      4276      4279      4280
      4273      4276      4279      4281      4273      4276      4279      4282
      4274      4273      4276      4277      4274      4273      4276      4278
      4274      4273      4276      4279      4275      4273      4276      4277
      4275      4273      4276      4278      4275      4273      4276      4279
      4276      4279      4282      4283      4276      4279      4282      4284
      4276      4279      4282      4285      4277      4276      4279      4280
      4277      4276      4279      4281      4277      4276      4279      4282
      4278      4276      4279      4280      4278      4276      4279      4281
      4278      4276      4279      4282      4279      4282      4285      4286
      4279      4282      4285      4287      4279      4282      4285      4288
      4280      4279      4282      4283      4280      4279      4282      4284
      4280      4279      4282      4285      4281      4279      4282      4283
      4281      4279      4282      4284      4281      4279      4282      4285
      4282      4285      4288      4289      4282      4285      4288      4290
      4282      4285      4288      4291      4283      4282      4285      4286
      4283      4282      4285      4287      4283      4282      4285      4288
      4284      4282      4285      4286      4284      4282      4285      4287
      4284      4282      4285      4288      4285      4288      4291      4292
      4285      4288      4291      4293      4285      4288      4291      4294
      4286      4285      4288      4289      4286      4285      4288      4290
      4286      4285      4288      4291      4287      4285      4288      4289
      4287      4285      4288      4290      4287      4285      4288      4291
      4288      4291      4294      4295      4288      4291      4294      4296
      4288      4291      4294      4297      4289      4288      4291      4292
      4289      4288      4291      4293      4289      4288      4291      4294
      4290      4288      4291      4292      4290      4288      4291      4293
      4290      4288      4291      4294      4292      4291      4294      4295
      4292      4291      4294      4296      4292      4291      4294      4297
      4293      4291      4294      4295      4293      4291      4294      4296
      4293      4291      4294      4297      4298      4301      4304      4305
      4298      4301      4304      4306      4298      4301      4304      4307
      4299      4298      4301      4302      4299      4298      4301      4303
      4299      4298      4301      4304      4300      4298      4301      4302
      4300      4298      4301      4303      4300      4298      4301      4304
      4301      4304      4307      4308      4301      4304      4307      4309
      4301      4304      4307      4310      4302      4301      4304      4305
      4302      4301      4304      4306      4302      4301      4304      4307
      4303      4301      4304      4305      4303      4301      4304      4306
      4303      4301      4304      4307      4304      4307      4310      4311
      4304      4307      4310      4312      4304      4307      4310      4313
      4305      4304      4307      4308      4305      4304      4307      4309
      4305      4304      4307      4310      4306      4304      4307      4308
      4306      4304      4307      4309      4306      4304      4307      4310
      4307      4310      4313      4314      4307      4310      4313      4315
      4307      4310      4313      4316      4308      4307      4310      4311
      4308      4307      4310      4312      4308      4307      4310      4313
      4309      4307      4310      4311      4309      4307      4310      4312
      4309      4307      4310      4313      4310      4313      4316      4317
      4310      4313      4316      4318      4310      4313      4316      4319
      4311      4310      4313      4314      4311      4310      4313      4315
      4311      4310      4313      4316      4312      4310      4313      4314
      4312      4310      4313      4315      4312      4310      4313      4316
      4313      4316      4319      4320      4313      4316      4319      4321
      4313      4316      4319      4322      4314      4313      4316      4317
      4314      4313      4316      4318      4314      4313      4316      4319
      4315      4313      4316      4317      4315      4313      4316      4318
      4315      4313      4316      4319      4316      4319      4322      4323
      4316      4319      4322      4324      4316      4319      4322      4325
      4317      4316      4319      4320      4317      4316      4319      4321
      4317      4316      4319      4322      4318      4316      4319      4320
      4318      4316      4319      4321      4318      4316      4319      4322
      4319      4322      4325      4326      4319      4322      4325      4327
      4319      4322      4325      4328      4320      4319      4322      4323
      4320      4319      4322      4324      4320      4319      4322      4325
      4321      4319      4322      4323      4321      4319      4322      4324
      4321      4319      4322      4325      4322      4325      4328      4329
      4322      4325      4328      4330      4322      4325      4328      4331
      4323      4322      4325      4326      4323      4322      4325      4327
      4323      4322      4325      4328      4324      4322      4325      4326
      4324      4322      4325      4327      4324      4322      4325      4328
      4325      4328      4331      4332      4325      4328      4331      4333
      4325      4328      4331      4334      4326      4325      4328      4329
      4326      4325      4328      4330      4326      4325      4328      4331
      4327      4325      4328      4329      4327      4325      4328      4330
      4327      4325      4328      4331      4328      4331      4334      4335
      4328      4331      4334      4336      4328      4331      4334      4337
      4329      4328      4331      4332      4329      4328      4331      4333
      4329      4328      4331      4334      4330      4328      4331      4332
      4330      4328      4331      4333      4330      4328      4331      4334
      4331      4334      4337      4338      4331      4334      4337      4339
      4331      4334      4337      4340      4332      4331      4334      4335
      4332      4331      4334      4336      4332      4331      4334      4337
      4333      4331      4334      4335      4333      4331      4334      4336
      4333      4331      4334      4337      4335      4334      4337      4338
      4335      4334      4337      4339      4335      4334      4337      4340
      4336      4334      4337      4338      4336      4334      4337      4339
      4336      4334      4337      4340      4341      4345      4348      4349
      4341      4345      4348      4379      4341      4387      4384      4379
      4341      4387      4384      4385      4341      4387      4384      4386
      4342      4341      4343      4344      4342      4341      4345      4346
      4342      4341      4345      4347      4342      4341      4345      4348
      4342      4341      4387      4384      4342      4341      4387      4388
      4342      4341      4387      4389      4343      4341      4345      4346
      4343      4341      4345      4347      4343      4341      4345      4348
      4343      4341      4387      4384      4343      4341      4387      4388
      4343      4341      4387      4389      4344      4343      4341      4345
      4344      4343      4341      4387      4345      4341      4387      4384
      4345      4341      4387      4388      4345      4341      4387      4389
      4345      4348      4349      4350      4345      4348      4349      4351
      4345      4348      4379      4377      4345      4348      4379      4380
      4345      4348      4379      4384      4346      4345      4341      4387
      4346      4345      4348      4349      4346      4345      4348      4379
      4347      4345      4341      4387      4347      4345      4348      4349
      4347      4345      4348      4379      4348      4345      4341      4387
      4348      4349      4351      4352      4348      4349      4351      4353
      4348      4349      4351      4354      4348      4379      4377      4354
      4348      4379      4377      4374      4348      4379      4377      4378
      4348      4379      4380      4381      4348      4379      4380      4382
      4348      4379      4380      4383      4348      4379      4384      4385
      4348      4379      4384      4386      4348      4379      4384      4387
      4349      4348      4379      4377      4349      4348      4379      4380
      4349      4348      4379      4384      4349      4351      4354      4355
      4349      4351      4354      4356      4349      4351      4354      4377
      4350      4349      4348      4379      4350      4349      4351      4352
      4350      4349      4351      4353      4350      4349      4351      4354
      4351      4349      4348      4379      4351      4354      4356      4357
      4351      4354      4356      4358      4351      4354      4356      4366
      4351      4354      4377      4374      4351      4354      4377      4378
      4351      4354      4377      4379      4352      4351      4354      4355
      4352      4351      4354      4356      4352      4351      4354      4377
      4353      4351      4354      4355      4353      4351      4354      4356
      4353      4351      4354      4377      4354      4356      4358      4359
      4354      4356      4358      4360      4354      4356      4358      4361
      4354      4356      4366      4364      4354      4356      4366      4367
      4354      4356      4366      4371      4354      4377      4374      4371
      4354      4377      4374      4375      4354      4377      4374      4376
      4354      4377      4379      4380      4354      4377      4379      4384
      4355      4354      4356      4357      4355      4354      4356      4358
      4355      4354      4356      4366      4355      4354      4377      4374
      4355      4354      4377      4378      4355      4354      4377      4379
      4356      4354      4377      4374      4356      4354      4377      4378
      4356      4354      4377      4379      4356      4358      4361      4362
      4356      4358      4361      4363      4356      4358      4361      4364
      4356      4366      4364      4361      4356      4366      4364      4365
      4356      4366      4364      4390      4356      4366      4367      4368
      4356      4366      4367      4369      4356      4366      4367      4370
      4356      4366      4371      4372      4356      4366      4371      4373
      4356      4366      4371      4374      4357      4356      4354      4377
      4357      4356      4358      4359      4357      4356      4358      4360
      4357      4356      4358      4361      4357      4356      4366      4364
      4357      4356      4366      4367      4357      4356      4366      4371
      4358      4356      4354      4377      4358      4356      4366      4364
      4358      4356      4366      4367      4358      4356      4366      4371
      4358      4361      4364      4365      4358      4361      4364      4366
      4358      4361      4364      4390      4359      4358      4356      4366
      4359      4358      4361      4362      4359      4358      4361      4363
      4359      4358      4361      4364      4360      4358      4356      4366
      4360      4358      4361      4362      4360      4358      4361      4363
      4360      4358      4361      4364      4361      4358      4356      4366
      4361      4364      4366      4367      4361      4364      4366      4371
      4361      4364      4390      4391      4361      4364      4390      4392
      4361      4364      4390      4396      4362      4361      4364      4365
      4362      4361      4364      4366      4362      4361      4364      4390
      4363      4361      4364      4365      4363      4361      4364      4366
      4363      4361      4364      4390      4364      4366      4367      4368
      4364      4366      4367      4369      4364      4366      4367      4370
      4364      4366      4371      4372      4364      4366      4371      4373
      4364      4366      4371      4374      4364      4390      4392      4393
      4364      4390      4392      4394      4364      4390      4392      4395
      4364      4390      4396      4397      4364      4390      4396      4398
      4364      4390      4396      4399      4365      4364      4366      4367
      4365      4364      4366      4371      4365      4364      4390      4391
      4365      4364      4390      4392      4365      4364      4390      4396
      4366      4356      4354      4377      4366      4364      4390      4391
      4366      4364      4390      4392      4366      4364      4390      4396
      4366      4371      4374      4375      4366      4371      4374      4376
      4366      4371      4374      4377      4367      4366      4364      4390
      4367      4366      4371      4372      4367      4366      4371      4373
      4367      4366      4371      4374      4368      4367      4366      4371
      4369      4367      4366      4371      4370      4367      4366      4371
      4371      4366      4364      4390      4371      4374      4377      4378
      4371      4374      4377      4379      4372      4371      4374      4375
      4372      4371      4374      4376      4372      4371      4374      4377
      4373      4371      4374      4375      4373      4371      4374      4376
      4373      4371      4374      4377      4374      4377      4379      4380
      4374      4377      4379      4384      4375      4374      4377      4378
      4375      4374      4377      4379      4376      4374      4377      4378
      4376      4374      4377      4379      4377      4379      4380      4381
      4377      4379      4380      4382      4377      4379      4380      4383
      4377      4379      4384      4385      4377      4379      4384      4386
      4377      4379      4384      4387      4378      4377      4379      4380
      4378      4377      4379      4384      4379      4384      4387      4388
      4379      4384      4387      4389      4380      4379      4384      4385
      4380      4379      4384      4386      4380      4379      4384      4387
      4381      4380      4379      4384      4382      4380      4379      4384
      4383      4380      4379      4384      4385      4384      4387      4388
      4385      4384      4387      4389      4386      4384      4387      4388
      4386      4384      4387      4389      4390      4396      4399      4400
      4390      4396      4399      4401      4390      4396      4399      4402
      4391      4390      4392      4393      4391      4390      4392      4394
      4391      4390      4392      4395      4391      4390      4396      4397
      4391      4390      4396      4398      4391      4390      4396      4399
      4392      4390      4396      4397      4392      4390      4396      4398
      4392      4390      4396      4399      4393      4392      4390      4396
      4394      4392      4390      4396      4395      4392      4390      4396
      4396      4399      4402      4403      4396      4399      4402      4404
      4396      4399      4402      4405      4397      4396      4399      4400
      4397      4396      4399      4401      4397      4396      4399      4402
      4398      4396      4399      4400      4398      4396      4399      4401
      4398      4396      4399      4402      4399      4402      4405      4406
      4399      4402      4405      4407      4399      4402      4405      4411
      4400      4399      4402      4403      4400      4399      4402      4404
      4400      4399      4402      4405      4401      4399      4402      4403
      4401      4399      4402      4404      4401      4399      4402      4405
      4402      4405      4407      4408      4402      4405      4407      4409
      4402      4405      4407      4410      4402      4405      4411      4412
      4402      4405      4411      4413      4402      4405      4411      4414
      4403      4402      4405      4406      4403      4402      4405      4407
      4403      4402      4405      4411      4404      4402      4405      4406
      4404      4402      4405      4407      4404      4402      4405      4411
      4406      4405      4407      4408      4406      4405      4407      4409
      4406      4405      4407      4410      4406      4405      4411      4412
      4406      4405      4411      4413      4406      4405      4411      4414
      4407      4405      4411      4412      4407      4405      4411      4413
      4407      4405      4411      4414      4408      4407      4405      4411
      4409      4407      4405      4411      4410      4407      4405      4411
      4415      4428      4431      4432      4415      4428      4431      4433
      4415      4428      4431      4438      4416      4415      4420      4421
      4416      4415      4420      4422      4416      4415      4420      4423
      4416      4415      4424      4425      4416      4415      4424      4426
      4416      4415      4424      4427      4416      4415      4428      4429
      4416      4415      4428      4430      4416      4415      4428      4431
      4417      4416      4415      4420      4417      4416      4415      4424
      4417      4416      4415      4428      4418      4416      4415      4420
      4418      4416      4415      4424      4418      4416      4415      4428
      4419      4416      4415      4420      4419      4416      4415      4424
      4419      4416      4415      4428      4420      4415      4424      4425
      4420      4415      4424      4426      4420      4415      4424      4427
      4420      4415      4428      4429      4420      4415      4428      4430
      4420      4415      4428      4431      4421      4420      4415      4424
      4421      4420      4415      4428      4422      4420      4415      4424
      4422      4420      4415      4428      4423      4420      4415      4424
      4423      4420      4415      4428      4424      4415      4428      4429
      4424      4415      4428      4430      4424      4415      4428      4431
      4425      4424      4415      4428      4426      4424      4415      4428
      4427      4424      4415      4428      4428      4431      4438      4434
      4429      4428      4431      4432      4429      4428      4431      4433
      4429      4428      4431      4438      4430      4428      4431      4432
      4430      4428      4431      4433      4430      4428      4431      4438
      4431      4438      4434      4435      4431      4438      4434      4436
      4431      4438      4434      4437      4432      4431      4438      4434
      4433      4431      4438      4434      4434      4437      4439      4440
      4434      4437      4439      4441      4434      4437      4439      4444
      4435      4434      4437      4439      4436      4434      4437      4439
      4437      4439      4444      4442      4437      4439      4444      4445
      4437      4439      4444      4446      4438      4434      4437      4439
      4439      4444      4442      4443      4439      4444      4442      4494
      4439      4444      4446      4447      4439      4444      4446      4448
      4439      4444      4446      4450      4440      4439      4444      4442
      4440      4439      4444      4445      4440      4439      4444      4446
      4441      4439      4444      4442      4441      4439      4444      4445
      4441      4439      4444      4446      4442      4444      4446      4447
      4442      4444      4446      4448      4442      4444      4446      4450
      4442      4494      4496      4497      4442      4494      4496      4498
      4442      4494      4496      4499      4443      4442      4444      4445
      4443      4442      4444      4446      4443      4442      4494      4495
      4443      4442      4494      4496      4444      4442      4494      4495
      4444      4442      4494      4496      4444      4446      4448      4449
      4444      4446      4450      4451      4444      4446      4450      4452
      4445      4444      4442      4494      4445      4444      4446      4447
      4445      4444      4446      4448      4445      4444      4446      4450
      4446      4444      4442      4494      4446      4450      4452      4453
      4446      4450      4452      4454      4447      4446      4448      4449
      4447      4446      4450      4451      4447      4446      4450      4452
      4448      4446      4450      4451      4448      4446      4450      4452
      4449      4448      4446      4450      4450      4452      4454      4455
      4450      4452      4454      4456      4450      4452      4454      4457
      4451      4450      4452      4453      4451      4450      4452      4454
      4452      4454      4457      4458      4452      4454      4457      4459
      4452      4454      4457      4460      4453      4452      4454      4455
      4453      4452      4454      4456      4453      4452      4454      4457
      4454      4457      4460      4461      4454      4457      4460      4462
      4454      4457      4460      4463      4455      4454      4457      4458
      4455      4454      4457      4459      4455      4454      4457      4460
      4456      4454      4457      4458      4456      4454      4457      4459
      4456      4454      4457      4460      4457      4460      4463      4464
      4457      4460      4463      4465      4457      4460      4463      4466
      4458      4457      4460      4461      4458      4457      4460      4462
      4458      4457      4460      4463      4459      4457      4460      4461
      4459      4457      4460      4462      4459      4457      4460      4463
      4460      4463      4466      4467      4460      4463      4466      4468
      4460      4463      4466      4469      4461      4460      4463      4464
      4461      4460      4463      4465      4461      4460      4463      4466
      4462      4460      4463      4464      4462      4460      4463      4465
      4462      4460      4463      4466      4463      4466      4469      4470
      4463      4466      4469      4471      4463      4466      4469      4472
      4464      4463      4466      4467      4464      4463      4466      4468
      4464      4463      4466      4469      4465      4463      4466      4467
      4465      4463      4466      4468      4465      4463      4466      4469
      4466      4469      4472      4473      4466      4469      4472      4474
      4466      4469      4472      4475      4467      4466      4469      4470
      4467      4466      4469      4471      4467      4466      4469      4472
      4468      4466      4469      4470      4468      4466      4469      4471
      4468      4466      4469      4472      4469      4472      4475      4476
      4469      4472      4475      4477      4469      4472      4475      4478
      4470      4469      4472      4473      4470      4469      4472      4474
      4470      4469      4472      4475      4471      4469      4472      4473
      4471      4469      4472      4474      4471      4469      4472      4475
      4472      4475      4478      4479      4472      4475      4478      4480
      4472      4475      4478      4481      4473      4472      4475      4476
      4473      4472      4475      4477      4473      4472      4475      4478
      4474      4472      4475      4476      4474      4472      4475      4477
      4474      4472      4475      4478      4475      4478      4481      4482
      4475      4478      4481      4483      4475      4478      4481      4484
      4476      4475      4478      4479      4476      4475      4478      4480
      4476      4475      4478      4481      4477      4475      4478      4479
      4477      4475      4478      4480      4477      4475      4478      4481
      4478      4481      4484      4485      4478      4481      4484      4486
      4478      4481      4484      4487      4479      4478      4481      4482
      4479      4478      4481      4483      4479      4478      4481      4484
      4480      4478      4481      4482      4480      4478      4481      4483
      4480      4478      4481      4484      4481      4484      4487      4488
      4481      4484      4487      4489      4481      4484      4487      4490
      4482      4481      4484      4485      4482      4481      4484      4486
      4482      4481      4484      4487      4483      4481      4484      4485
      4483      4481      4484      4486      4483      4481      4484      4487
      4484      4487      4490      4491      4484      4487      4490      4492
      4484      4487      4490      4493      4485      4484      4487      4488
      4485      4484      4487      4489      4485      4484      4487      4490
      4486      4484      4487      4488      4486      4484      4487      4489
      4486      4484      4487      4490      4488      4487      4490      4491
      4488      4487      4490      4492      4488      4487      4490      4493
      4489      4487      4490      4491      4489      4487      4490      4492
      4489      4487      4490      4493      4494      4496      4499      4500
      4494      4496      4499      4501      4494      4496      4499      4502
      4495      4494      4496      4497      4495      4494      4496      4498
      4495      4494      4496      4499      4496      4499      4502      4503
      4496      4499      4502      4504      4496      4499      4502      4505
      4497      4496      4499      4500      4497      4496      4499      4501
      4497      4496      4499      4502      4498      4496      4499      4500
      4498      4496      4499      4501      4498      4496      4499      4502
      4499      4502      4505      4506      4499      4502      4505      4507
      4499      4502      4505      4508      4500      4499      4502      4503
      4500      4499      4502      4504      4500      4499      4502      4505
      4501      4499      4502      4503      4501      4499      4502      4504
      4501      4499      4502      4505      4502      4505      4508      4509
      4502      4505      4508      4510      4502      4505      4508      4511
      4503      4502      4505      4506      4503      4502      4505      4507
      4503      4502      4505      4508      4504      4502      4505      4506
      4504      4502      4505      4507      4504      4502      4505      4508
      4505      4508      4511      4512      4505      4508      4511      4513
      4505      4508      4511      4514      4506      4505      4508      4509
      4506      4505      4508      4510      4506      4505      4508      4511
      4507      4505      4508      4509      4507      4505      4508      4510
      4507      4505      4508      4511      4508      4511      4514      4515
      4508      4511      4514      4516      4508      4511      4514      4517
      4509      4508      4511      4512      4509      4508      4511      4513
      4509      4508      4511      4514      4510      4508      4511      4512
      4510      4508      4511      4513      4510      4508      4511      4514
      4511      4514      4517      4518      4511      4514      4517      4519
      4512      4511      4514      4515      4512      4511      4514      4516
      4512      4511      4514      4517      4513      4511      4514      4515
      4513      4511      4514      4516      4513      4511      4514      4517
      4514      4517      4519      4520      4514      4517      4519      4521
      4515      4514      4517      4518      4515      4514      4517      4519
      4516      4514      4517      4518      4516      4514      4517      4519
      4517      4519      4521      4522      4517      4519      4521      4523
      4517      4519      4521      4524      4518      4517      4519      4520
      4518      4517      4519      4521      4519      4521      4524      4525
      4519      4521      4524      4526      4519      4521      4524      4527
      4520      4519      4521      4522      4520      4519      4521      4523
      4520      4519      4521      4524      4521      4524      4527      4528
      4521      4524      4527      4529      4521      4524      4527      4530
      4522      4521      4524      4525      4522      4521      4524      4526
      4522      4521      4524      4527      4523      4521      4524      4525
      4523      4521      4524      4526      4523      4521      4524      4527
      4524      4527      4530      4531      4524      4527      4530      4532
      4524      4527      4530      4533      4525      4524      4527      4528
      4525      4524      4527      4529      4525      4524      4527      4530
      4526      4524      4527      4528      4526      4524      4527      4529
      4526      4524      4527      4530      4527      4530      4533      4534
      4527      4530      4533      4535      4527      4530      4533      4536
      4528      4527      4530      4531      4528      4527      4530      4532
      4528      4527      4530      4533      4529      4527      4530      4531
      4529      4527      4530      4532      4529      4527      4530      4533
      4530      4533      4536      4537      4530      4533      4536      4538
      4530      4533      4536      4539      4531      4530      4533      4534
      4531      4530      4533      4535      4531      4530      4533      4536
      4532      4530      4533      4534      4532      4530      4533      4535
      4532      4530      4533      4536      4533      4536      4539      4540
      4533      4536      4539      4541      4533      4536      4539      4542
      4534      4533      4536      4537      4534      4533      4536      4538
      4534      4533      4536      4539      4535      4533      4536      4537
      4535      4533      4536      4538      4535      4533      4536      4539
      4536      4539      4542      4543      4536      4539      4542      4544
      4536      4539      4542      4545      4537      4536      4539      4540
      4537      4536      4539      4541      4537      4536      4539      4542
      4538      4536      4539      4540      4538      4536      4539      4541
      4538      4536      4539      4542      4540      4539      4542      4543
      4540      4539      4542      4544      4540      4539      4542      4545
      4541      4539      4542      4543      4541      4539      4542      4544
      4541      4539      4542      4545      4546      4559      4562      4563
      4546      4559      4562      4564      4546      4559      4562      4569
      4547      4546      4551      4552      4547      4546      4551      4553
      4547      4546      4551      4554      4547      4546      4555      4556
      4547      4546      4555      4557      4547      4546      4555      4558
      4547      4546      4559      4560      4547      4546      4559      4561
      4547      4546      4559      4562      4548      4547      4546      4551
      4548      4547      4546      4555      4548      4547      4546      4559
      4549      4547      4546      4551      4549      4547      4546      4555
      4549      4547      4546      4559      4550      4547      4546      4551
      4550      4547      4546      4555      4550      4547      4546      4559
      4551      4546      4555      4556      4551      4546      4555      4557
      4551      4546      4555      4558      4551      4546      4559      4560
      4551      4546      4559      4561      4551      4546      4559      4562
      4552      4551      4546      4555      4552      4551      4546      4559
      4553      4551      4546      4555      4553      4551      4546      4559
      4554      4551      4546      4555      4554      4551      4546      4559
      4555      4546      4559      4560      4555      4546      4559      4561
      4555      4546      4559      4562      4556      4555      4546      4559
      4557      4555      4546      4559      4558      4555      4546      4559
      4559      4562      4569      4565      4560      4559      4562      4563
      4560      4559      4562      4564      4560      4559      4562      4569
      4561      4559      4562      4563      4561      4559      4562      4564
      4561      4559      4562      4569      4562      4569      4565      4566
      4562      4569      4565      4567      4562      4569      4565      4568
      4563      4562      4569      4565      4564      4562      4569      4565
      4565      4568      4570      4571      4565      4568      4570      4572
      4565      4568      4570      4575      4566      4565      4568      4570
      4567      4565      4568      4570      4568      4570      4575      4573
      4568      4570      4575      4576      4568      4570      4575      4577
      4569      4565      4568      4570      4570      4575      4573      4574
      4570      4575      4573      4625      4570      4575      4577      4578
      4570      4575      4577      4579      4570      4575      4577      4581
      4571      4570      4575      4573      4571      4570      4575      4576
      4571      4570      4575      4577      4572      4570      4575      4573
      4572      4570      4575      4576      4572      4570      4575      4577
      4573      4575      4577      4578      4573      4575      4577      4579
      4573      4575      4577      4581      4573      4625      4627      4628
      4573      4625      4627      4629      4573      4625      4627      4630
      4574      4573      4575      4576      4574      4573      4575      4577
      4574      4573      4625      4626      4574      4573      4625      4627
      4575      4573      4625      4626      4575      4573      4625      4627
      4575      4577      4579      4580      4575      4577      4581      4582
      4575      4577      4581      4583      4576      4575      4573      4625
      4576      4575      4577      4578      4576      4575      4577      4579
      4576      4575      4577      4581      4577      4575      4573      4625
      4577      4581      4583      4584      4577      4581      4583      4585
      4578      4577      4579      4580      4578      4577      4581      4582
      4578      4577      4581      4583      4579      4577      4581      4582
      4579      4577      4581      4583      4580      4579      4577      4581
      4581      4583      4585      4586      4581      4583      4585      4587
      4581      4583      4585      4588      4582      4581      4583      4584
      4582      4581      4583      4585      4583      4585      4588      4589
      4583      4585      4588      4590      4583      4585      4588      4591
      4584      4583      4585      4586      4584      4583      4585      4587
      4584      4583      4585      4588      4585      4588      4591      4592
      4585      4588      4591      4593      4585      4588      4591      4594
      4586      4585      4588      4589      4586      4585      4588      4590
      4586      4585      4588      4591      4587      4585      4588      4589
      4587      4585      4588      4590      4587      4585      4588      4591
      4588      4591      4594      4595      4588      4591      4594      4596
      4588      4591      4594      4597      4589      4588      4591      4592
      4589      4588      4591      4593      4589      4588      4591      4594
      4590      4588      4591      4592      4590      4588      4591      4593
      4590      4588      4591      4594      4591      4594      4597      4598
      4591      4594      4597      4599      4591      4594      4597      4600
      4592      4591      4594      4595      4592      4591      4594      4596
      4592      4591      4594      4597      4593      4591      4594      4595
      4593      4591      4594      4596      4593      4591      4594      4597
      4594      4597      4600      4601      4594      4597      4600      4602
      4594      4597      4600      4603      4595      4594      4597      4598
      4595      4594      4597      4599      4595      4594      4597      4600
      4596      4594      4597      4598      4596      4594      4597      4599
      4596      4594      4597      4600      4597      4600      4603      4604
      4597      4600      4603      4605      4597      4600      4603      4606
      4598      4597      4600      4601      4598      4597      4600      4602
      4598      4597      4600      4603      4599      4597      4600      4601
      4599      4597      4600      4602      4599      4597      4600      4603
      4600      4603      4606      4607      4600      4603      4606      4608
      4600      4603      4606      4609      4601      4600      4603      4604
      4601      4600      4603      4605      4601      4600      4603      4606
      4602      4600      4603      4604      4602      4600      4603      4605
      4602      4600      4603      4606      4603      4606      4609      4610
      4603      4606      4609      4611      4603      4606      4609      4612
      4604      4603      4606      4607      4604      4603      4606      4608
      4604      4603      4606      4609      4605      4603      4606      4607
      4605      4603      4606      4608      4605      4603      4606      4609
      4606      4609      4612      4613      4606      4609      4612      4614
      4606      4609      4612      4615      4607      4606      4609      4610
      4607      4606      4609      4611      4607      4606      4609      4612
      4608      4606      4609      4610      4608      4606      4609      4611
      4608      4606      4609      4612      4609      4612      4615      4616
      4609      4612      4615      4617      4609      4612      4615      4618
      4610      4609      4612      4613      4610      4609      4612      4614
      4610      4609      4612      4615      4611      4609      4612      4613
      4611      4609      4612      4614      4611      4609      4612      4615
      4612      4615      4618      4619      4612      4615      4618      4620
      4612      4615      4618      4621      4613      4612      4615      4616
      4613      4612      4615      4617      4613      4612      4615      4618
      4614      4612      4615      4616      4614      4612      4615      4617
      4614      4612      4615      4618      4615      4618      4621      4622
      4615      4618      4621      4623      4615      4618      4621      4624
      4616      4615      4618      4619      4616      4615      4618      4620
      4616      4615      4618      4621      4617      4615      4618      4619
      4617      4615      4618      4620      4617      4615      4618      4621
      4619      4618      4621      4622      4619      4618      4621      4623
      4619      4618      4621      4624      4620      4618      4621      4622
      4620      4618      4621      4623      4620      4618      4621      4624
      4625      4627      4630      4631      4625      4627      4630      4632
      4625      4627      4630      4633      4626      4625      4627      4628
      4626      4625      4627      4629      4626      4625      4627      4630
      4627      4630      4633      4634      4627      4630      4633      4635
      4627      4630      4633      4636      4628      4627      4630      4631
      4628      4627      4630      4632      4628      4627      4630      4633
      4629      4627      4630      4631      4629      4627      4630      4632
      4629      4627      4630      4633      4630      4633      4636      4637
      4630      4633      4636      4638      4630      4633      4636      4639
      4631      4630      4633      4634      4631      4630      4633      4635
      4631      4630      4633      4636      4632      4630      4633      4634
      4632      4630      4633      4635      4632      4630      4633      4636
      4633      4636      4639      4640      4633      4636      4639      4641
      4633      4636      4639      4642      4634      4633      4636      4637
      4634      4633      4636      4638      4634      4633      4636      4639
      4635      4633      4636      4637      4635      4633      4636      4638
      4635      4633      4636      4639      4636      4639      4642      4643
      4636      4639      4642      4644      4636      4639      4642      4645
      4637      4636      4639      4640      4637      4636      4639      4641
      4637      4636      4639      4642      4638      4636      4639      4640
      4638      4636      4639      4641      4638      4636      4639      4642
      4639      4642      4645      4646      4639      4642      4645      4647
      4639      4642      4645      4648      4640      4639      4642      4643
      4640      4639      4642      4644      4640      4639      4642      4645
      4641      4639      4642      4643      4641      4639      4642      4644
      4641      4639      4642      4645      4642      4645      4648      4649
      4642      4645      4648      4650      4643      4642      4645      4646
      4643      4642      4645      4647      4643      4642      4645      4648
      4644      4642      4645      4646      4644      4642      4645      4647
      4644      4642      4645      4648      4645      4648      4650      4651
      4645      4648      4650      4652      4646      4645      4648      4649
      4646      4645      4648      4650      4647      4645      4648      4649
      4647      4645      4648      4650      4648      4650      4652      4653
      4648      4650      4652      4654      4648      4650      4652      4655
      4649      4648      4650      4651      4649      4648      4650      4652
      4650      4652      4655      4656      4650      4652      4655      4657
      4650      4652      4655      4658      4651      4650      4652      4653
      4651      4650      4652      4654      4651      4650      4652      4655
      4652      4655      4658      4659      4652      4655      4658      4660
      4652      4655      4658      4661      4653      4652      4655      4656
      4653      4652      4655      4657      4653      4652      4655      4658
      4654      4652      4655      4656      4654      4652      4655      4657
      4654      4652      4655      4658      4655      4658      4661      4662
      4655      4658      4661      4663      4655      4658      4661      4664
      4656      4655      4658      4659      4656      4655      4658      4660
      4656      4655      4658      4661      4657      4655      4658      4659
      4657      4655      4658      4660      4657      4655      4658      4661
      4658      4661      4664      4665      4658      4661      4664      4666
      4658      4661      4664      4667      4659      4658      4661      4662
      4659      4658      4661      4663      4659      4658      4661      4664
      4660      4658      4661      4662      4660      4658      4661      4663
      4660      4658      4661      4664      4661      4664      4667      4668
      4661      4664      4667      4669      4661      4664      4667      4670
      4662      4661      4664      4665      4662      4661      4664      4666
      4662      4661      4664      4667      4663      4661      4664      4665
      4663      4661      4664      4666      4663      4661      4664      4667
      4664      4667      4670      4671      4664      4667      4670      4672
      4664      4667      4670      4673      4665      4664      4667      4668
      4665      4664      4667      4669      4665      4664      4667      4670
      4666      4664      4667      4668      4666      4664      4667      4669
      4666      4664      4667      4670      4667      4670      4673      4674
      4667      4670      4673      4675      4667      4670      4673      4676
      4668      4667      4670      4671      4668      4667      4670      4672
      4668      4667      4670      4673      4669      4667      4670      4671
      4669      4667      4670      4672      4669      4667      4670      4673
      4671      4670      4673      4674      4671      4670      4673      4675
      4671      4670      4673      4676      4672      4670      4673      4674
      4672      4670      4673      4675      4672      4670      4673      4676
      4677      4681      4683      4684      4677      4681      4683      4685
      4677      4681      4686      4687      4677      4681      4686      4688
      4677      4681      4686      4692      4678      4677      4681      4682
      4678      4677      4681      4683      4678      4677      4681      4686
      4679      4677      4681      4682      4679      4677      4681      4683
      4679      4677      4681      4686      4680      4677      4681      4682
      4680      4677      4681      4683      4680      4677      4681      4686
      4681      4686      4692      4689      4682      4681      4683      4684
      4682      4681      4683      4685      4682      4681      4686      4687
      4682      4681      4686      4688      4682      4681      4686      4692
      4683      4681      4686      4687      4683      4681      4686      4688
      4683      4681      4686      4692      4684      4683      4681      4686
      4685      4683      4681      4686      4686      4692      4689      4690
      4686      4692      4689      4691      4686      4692      4689      4693
      4687      4686      4692      4689      4688      4686      4692      4689
      4689      4693      4694      4695      4689      4693      4694      4696
      4689      4693      4694      4697      4690      4689      4693      4694
      4691      4689      4693      4694      4692      4689      4693      4694
      4693      4694      4697      4698      4693      4694      4697      4699
      4693      4694      4697      4705      4694      4697      4699      4700
      4694      4697      4705      4706      4694      4697      4705      4707
      4694      4697      4705      4708      4695      4694      4697      4698
      4695      4694      4697      4699      4695      4694      4697      4705
      4696      4694      4697      4698      4696      4694      4697      4699
      4696      4694      4697      4705      4697      4699      4700      4701
      4697      4699      4700      4702      4697      4705      4708      4709
      4698      4697      4699      4700      4698      4697      4705      4706
      4698      4697      4705      4707      4698      4697      4705      4708
      4699      4697      4705      4706      4699      4697      4705      4707
      4699      4697      4705      4708      4699      4700      4702      4703
      4699      4700      4702      4704      4699      4700      4702      4714
      4700      4699      4697      4705      4700      4702      4714      4715
      4700      4702      4714      4716      4700      4702      4714      4717
      4701      4700      4702      4703      4701      4700      4702      4704
      4701      4700      4702      4714      4702      4714      4717      4718
      4702      4714      4717      4719      4702      4714      4717      4720
      4703      4702      4714      4715      4703      4702      4714      4716
      4703      4702      4714      4717      4704      4702      4714      4715
      4704      4702      4714      4716      4704      4702      4714      4717
      4705      4708      4709      4710      4705      4708      4709      4711
      4706      4705      4708      4709      4707      4705      4708      4709
      4708      4709      4711      4712      4708      4709      4711      4713
      4708      4709      4711      4761      4709      4711      4761      4762
      4709      4711      4761      4763      4709      4711      4761      4764
      4710      4709      4711      4712      4710      4709      4711      4713
      4710      4709      4711      4761      4711      4761      4764      4765
      4711      4761      4764      4766      4711      4761      4764      4767
      4712      4711      4761      4762      4712      4711      4761      4763
      4712      4711      4761      4764      4713      4711      4761      4762
      4713      4711      4761      4763      4713      4711      4761      4764
      4714      4717      4720      4721      4714      4717      4720      4722
      4715      4714      4717      4718      4715      4714      4717      4719
      4715      4714      4717      4720      4716      4714      4717      4718
      4716      4714      4717      4719      4716      4714      4717      4720
      4717      4720      4722      4723      4717      4720      4722      4724
      4718      4717      4720      4721      4718      4717      4720      4722
      4719      4717      4720      4721      4719      4717      4720      4722
      4720      4722      4724      4725      4720      4722      4724      4726
      4720      4722      4724      4727      4721      4720      4722      4723
      4721      4720      4722      4724      4722      4724      4727      4728
      4722      4724      4727      4729      4723      4722      4724      4725
      4723      4722      4724      4726      4723      4722      4724      4727
      4724      4727      4729      4730      4724      4727      4729      4731
      4725      4724      4727      4728      4725      4724      4727      4729
      4726      4724      4727      4728      4726      4724      4727      4729
      4727      4729      4731      4732      4727      4729      4731      4733
      4727      4729      4731      4734      4728      4727      4729      4730
      4728      4727      4729      4731      4729      4731      4734      4735
      4729      4731      4734      4736      4730      4729      4731      4732
      4730      4729      4731      4733      4730      4729      4731      4734
      4731      4734      4736      4737      4731      4734      4736      4738
      4732      4731      4734      4735      4732      4731      4734      4736
      4733      4731      4734      4735      4733      4731      4734      4736
      4734      4736      4738      4739      4734      4736      4738      4740
      4734      4736      4738      4741      4735      4734      4736      4737
      4735      4734      4736      4738      4736      4738      4741      4742
      4736      4738      4741      4743      4737      4736      4738      4739
      4737      4736      4738      4740      4737      4736      4738      4741
      4738      4741      4743      4744      4738      4741      4743      4745
      4739      4738      4741      4742      4739      4738      4741      4743
      4740      4738      4741      4742      4740      4738      4741      4743
      4741      4743      4745      4746      4741      4743      4745      4747
      4741      4743      4745      4748      4742      4741      4743      4744
      4742      4741      4743      4745      4743      4745      4748      4749
      4743      4745      4748      4750      4743      4745      4748      4751
      4744      4743      4745      4746      4744      4743      4745      4747
      4744      4743      4745      4748      4745      4748      4751      4752
      4745      4748      4751      4753      4745      4748      4751      4754
      4746      4745      4748      4749      4746      4745      4748      4750
      4746      4745      4748      4751      4747      4745      4748      4749
      4747      4745      4748      4750      4747      4745      4748      4751
      4748      4751      4754      4755      4748      4751      4754      4756
      4748      4751      4754      4757      4749      4748      4751      4752
      4749      4748      4751      4753      4749      4748      4751      4754
      4750      4748      4751      4752      4750      4748      4751      4753
      4750      4748      4751      4754      4751      4754      4757      4758
      4751      4754      4757      4759      4751      4754      4757      4760
      4752      4751      4754      4755      4752      4751      4754      4756
      4752      4751      4754      4757      4753      4751      4754      4755
      4753      4751      4754      4756      4753      4751      4754      4757
      4755      4754      4757      4758      4755      4754      4757      4759
      4755      4754      4757      4760      4756      4754      4757      4758
      4756      4754      4757      4759      4756      4754      4757      4760
      4761      4764      4767      4768      4761      4764      4767      4769
      4761      4764      4767      4770      4762      4761      4764      4765
      4762      4761      4764      4766      4762      4761      4764      4767
      4763      4761      4764      4765      4763      4761      4764      4766
      4763      4761      4764      4767      4764      4767      4770      4771
      4764      4767      4770      4772      4764      4767      4770      4773
      4765      4764      4767      4768      4765      4764      4767      4769
      4765      4764      4767      4770      4766      4764      4767      4768
      4766      4764      4767      4769      4766      4764      4767      4770
      4767      4770      4773      4774      4767      4770      4773      4775
      4767      4770      4773      4776      4768      4767      4770      4771
      4768      4767      4770      4772      4768      4767      4770      4773
      4769      4767      4770      4771      4769      4767      4770      4772
      4769      4767      4770      4773      4770      4773      4776      4777
      4770      4773      4776      4778      4770      4773      4776      4779
      4771      4770      4773      4774      4771      4770      4773      4775
      4771      4770      4773      4776      4772      4770      4773      4774
      4772      4770      4773      4775      4772      4770      4773      4776
      4773      4776      4779      4780      4773      4776      4779      4781
      4773      4776      4779      4782      4774      4773      4776      4777
      4774      4773      4776      4778      4774      4773      4776      4779
      4775      4773      4776      4777      4775      4773      4776      4778
      4775      4773      4776      4779      4776      4779      4782      4783
      4776      4779      4782      4784      4776      4779      4782      4785
      4777      4776      4779      4780      4777      4776      4779      4781
      4777      4776      4779      4782      4778      4776      4779      4780
      4778      4776      4779      4781      4778      4776      4779      4782
      4779      4782      4785      4786      4779      4782      4785      4787
      4779      4782      4785      4788      4780      4779      4782      4783
      4780      4779      4782      4784      4780      4779      4782      4785
      4781      4779      4782      4783      4781      4779      4782      4784
      4781      4779      4782      4785      4782      4785      4788      4789
      4782      4785      4788      4790      4782      4785      4788      4791
      4783      4782      4785      4786      4783      4782      4785      4787
      4783      4782      4785      4788      4784      4782      4785      4786
      4784      4782      4785      4787      4784      4782      4785      4788
      4785      4788      4791      4792      4785      4788      4791      4793
      4785      4788      4791      4794      4786      4785      4788      4789
      4786      4785      4788      4790      4786      4785      4788      4791
      4787      4785      4788      4789      4787      4785      4788      4790
      4787      4785      4788      4791      4788      4791      4794      4795
      4788      4791      4794      4796      4788      4791      4794      4797
      4789      4788      4791      4792      4789      4788      4791      4793
      4789      4788      4791      4794      4790      4788      4791      4792
      4790      4788      4791      4793      4790      4788      4791      4794
      4791      4794      4797      4798      4791      4794      4797      4799
      4791      4794      4797      4800      4792      4791      4794      4795
      4792      4791      4794      4796      4792      4791      4794      4797
      4793      4791      4794      4795      4793      4791      4794      4796
      4793      4791      4794      4797      4794      4797      4800      4801
      4794      4797      4800      4802      4794      4797      4800      4803
      4795      4794      4797      4798      4795      4794      4797      4799
      4795      4794      4797      4800      4796      4794      4797      4798
      4796      4794      4797      4799      4796      4794      4797      4800
      4797      4800      4803      4804      4797      4800      4803      4805
      4797      4800      4803      4806      4798      4797      4800      4801
      4798      4797      4800      4802      4798      4797      4800      4803
      4799      4797      4800      4801      4799      4797      4800      4802
      4799      4797      4800      4803      4800      4803      4806      4807
      4800      4803      4806      4808      4800      4803      4806      4809
      4801      4800      4803      4804      4801      4800      4803      4805
      4801      4800      4803      4806      4802      4800      4803      4804
      4802      4800      4803      4805      4802      4800      4803      4806
      4804      4803      4806      4807      4804      4803      4806      4808
      4804      4803      4806      4809      4805      4803      4806      4807
      4805      4803      4806      4808      4805      4803      4806      4809
      4810      4823      4826      4827      4810      4823      4826      4828
      4810      4823      4826      4833      4811      4810      4815      4816
      4811      4810      4815      4817      4811      4810      4815      4818
      4811      4810      4819      4820      4811      4810      4819      4821
      4811      4810      4819      4822      4811      4810      4823      4824
      4811      4810      4823      4825      4811      4810      4823      4826
      4812      4811      4810      4815      4812      4811      4810      4819
      4812      4811      4810      4823      4813      4811      4810      4815
      4813      4811      4810      4819      4813      4811      4810      4823
      4814      4811      4810      4815      4814      4811      4810      4819
      4814      4811      4810      4823      4815      4810      4819      4820
      4815      4810      4819      4821      4815      4810      4819      4822
      4815      4810      4823      4824      4815      4810      4823      4825
      4815      4810      4823      4826      4816      4815      4810      4819
      4816      4815      4810      4823      4817      4815      4810      4819
      4817      4815      4810      4823      4818      4815      4810      4819
      4818      4815      4810      4823      4819      4810      4823      4824
      4819      4810      4823      4825      4819      4810      4823      4826
      4820      4819      4810      4823      4821      4819      4810      4823
      4822      4819      4810      4823      4823      4826      4833      4829
      4824      4823      4826      4827      4824      4823      4826      4828
      4824      4823      4826      4833      4825      4823      4826      4827
      4825      4823      4826      4828      4825      4823      4826      4833
      4826      4833      4829      4830      4826      4833      4829      4831
      4826      4833      4829      4832      4827      4826      4833      4829
      4828      4826      4833      4829      4829      4832      4834      4835
      4829      4832      4834      4836      4829      4832      4834      4839
      4830      4829      4832      4834      4831      4829      4832      4834
      4832      4834      4839      4837      4832      4834      4839      4840
      4832      4834      4839      4841      4833      4829      4832      4834
      4834      4839      4837      4838      4834      4839      4837      4889
      4834      4839      4841      4842      4834      4839      4841      4843
      4834      4839      4841      4845      4835      4834      4839      4837
      4835      4834      4839      4840      4835      4834      4839      4841
      4836      4834      4839      4837      4836      4834      4839      4840
      4836      4834      4839      4841      4837      4839      4841      4842
      4837      4839      4841      4843      4837      4839      4841      4845
      4837      4889      4891      4892      4837      4889      4891      4893
      4837      4889      4891      4894      4838      4837      4839      4840
      4838      4837      4839      4841      4838      4837      4889      4890
      4838      4837      4889      4891      4839      4837      4889      4890
      4839      4837      4889      4891      4839      4841      4843      4844
      4839      4841      4845      4846      4839      4841      4845      4847
      4840      4839      4837      4889      4840      4839      4841      4842
      4840      4839      4841      4843      4840      4839      4841      4845
      4841      4839      4837      4889      4841      4845      4847      4848
      4841      4845      4847      4849      4842      4841      4843      4844
      4842      4841      4845      4846      4842      4841      4845      4847
      4843      4841      4845      4846      4843      4841      4845      4847
      4844      4843      4841      4845      4845      4847      4849      4850
      4845      4847      4849      4851      4845      4847      4849      4852
      4846      4845      4847      4848      4846      4845      4847      4849
      4847      4849      4852      4853      4847      4849      4852      4854
      4847      4849      4852      4855      4848      4847      4849      4850
      4848      4847      4849      4851      4848      4847      4849      4852
      4849      4852      4855      4856      4849      4852      4855      4857
      4849      4852      4855      4858      4850      4849      4852      4853
      4850      4849      4852      4854      4850      4849      4852      4855
      4851      4849      4852      4853      4851      4849      4852      4854
      4851      4849      4852      4855      4852      4855      4858      4859
      4852      4855      4858      4860      4852      4855      4858      4861
      4853      4852      4855      4856      4853      4852      4855      4857
      4853      4852      4855      4858      4854      4852      4855      4856
      4854      4852      4855      4857      4854      4852      4855      4858
      4855      4858      4861      4862      4855      4858      4861      4863
      4855      4858      4861      4864      4856      4855      4858      4859
      4856      4855      4858      4860      4856      4855      4858      4861
      4857      4855      4858      4859      4857      4855      4858      4860
      4857      4855      4858      4861      4858      4861      4864      4865
      4858      4861      4864      4866      4858      4861      4864      4867
      4859      4858      4861      4862      4859      4858      4861      4863
      4859      4858      4861      4864      4860      4858      4861      4862
      4860      4858      4861      4863      4860      4858      4861      4864
      4861      4864      4867      4868      4861      4864      4867      4869
      4861      4864      4867      4870      4862      4861      4864      4865
      4862      4861      4864      4866      4862      4861      4864      4867
      4863      4861      4864      4865      4863      4861      4864      4866
      4863      4861      4864      4867      4864      4867      4870      4871
      4864      4867      4870      4872      4864      4867      4870      4873
      4865      4864      4867      4868      4865      4864      4867      4869
      4865      4864      4867      4870      4866      4864      4867      4868
      4866      4864      4867      4869      4866      4864      4867      4870
      4867      4870      4873      4874      4867      4870      4873      4875
      4867      4870      4873      4876      4868      4867      4870      4871
      4868      4867      4870      4872      4868      4867      4870      4873
      4869      4867      4870      4871      4869      4867      4870      4872
      4869      4867      4870      4873      4870      4873      4876      4877
      4870      4873      4876      4878      4870      4873      4876      4879
      4871      4870      4873      4874      4871      4870      4873      4875
      4871      4870      4873      4876      4872      4870      4873      4874
      4872      4870      4873      4875      4872      4870      4873      4876
      4873      4876      4879      4880      4873      4876      4879      4881
      4873      4876      4879      4882      4874      4873      4876      4877
      4874      4873      4876      4878      4874      4873      4876      4879
      4875      4873      4876      4877      4875      4873      4876      4878
      4875      4873      4876      4879      4876      4879      4882      4883
      4876      4879      4882      4884      4876      4879      4882      4885
      4877      4876      4879      4880      4877      4876      4879      4881
      4877      4876      4879      4882      4878      4876      4879      4880
      4878      4876      4879      4881      4878      4876      4879      4882
      4879      4882      4885      4886      4879      4882      4885      4887
      4879      4882      4885      4888      4880      4879      4882      4883
      4880      4879      4882      4884      4880      4879      4882      4885
      4881      4879      4882      4883      4881      4879      4882      4884
      4881      4879      4882      4885      4883      4882      4885      4886
      4883      4882      4885      4887      4883      4882      4885      4888
      4884      4882      4885      4886      4884      4882      4885      4887
      4884      4882      4885      4888      4889      4891      4894      4895
      4889      4891      4894      4896      4889      4891      4894      4897
      4890      4889      4891      4892      4890      4889      4891      4893
      4890      4889      4891      4894      4891      4894      4897      4898
      4891      4894      4897      4899      4891      4894      4897      4900
      4892      4891      4894      4895      4892      4891      4894      4896
      4892      4891      4894      4897      4893      4891      4894      4895
      4893      4891      4894      4896      4893      4891      4894      4897
      4894      4897      4900      4901      4894      4897      4900      4902
      4894      4897      4900      4903      4895      4894      4897      4898
      4895      4894      4897      4899      4895      4894      4897      4900
      4896      4894      4897      4898      4896      4894      4897      4899
      4896      4894      4897      4900      4897      4900      4903      4904
      4897      4900      4903      4905      4897      4900      4903      4906
      4898      4897      4900      4901      4898      4897      4900      4902
      4898      4897      4900      4903      4899      4897      4900      4901
      4899      4897      4900      4902      4899      4897      4900      4903
      4900      4903      4906      4907      4900      4903      4906      4908
      4900      4903      4906      4909      4901      4900      4903      4904
      4901      4900      4903      4905      4901      4900      4903      4906
      4902      4900      4903      4904      4902      4900      4903      4905
      4902      4900      4903      4906      4903      4906      4909      4910
      4903      4906      4909      4911      4903      4906      4909      4912
      4904      4903      4906      4907      4904      4903      4906      4908
      4904      4903      4906      4909      4905      4903      4906      4907
      4905      4903      4906      4908      4905      4903      4906      4909
      4906      4909      4912      4913      4906      4909      4912      4914
      4907      4906      4909      4910      4907      4906      4909      4911
      4907      4906      4909      4912      4908      4906      4909      4910
      4908      4906      4909      4911      4908      4906      4909      4912
      4909      4912      4914      4915      4909      4912      4914      4916
      4910      4909      4912      4913      4910      4909      4912      4914
      4911      4909      4912      4913      4911      4909      4912      4914
      4912      4914      4916      4917      4912      4914      4916      4918
      4912      4914      4916      4919      4913      4912      4914      4915
      4913      4912      4914      4916      4914      4916      4919      4920
      4914      4916      4919      4921      4914      4916      4919      4922
      4915      4914      4916      4917      4915      4914      4916      4918
      4915      4914      4916      4919      4916      4919      4922      4923
      4916      4919      4922      4924      4916      4919      4922      4925
      4917      4916      4919      4920      4917      4916      4919      4921
      4917      4916      4919      4922      4918      4916      4919      4920
      4918      4916      4919      4921      4918      4916      4919      4922
      4919      4922      4925      4926      4919      4922      4925      4927
      4919      4922      4925      4928      4920      4919      4922      4923
      4920      4919      4922      4924      4920      4919      4922      4925
      4921      4919      4922      4923      4921      4919      4922      4924
      4921      4919      4922      4925      4922      4925      4928      4929
      4922      4925      4928      4930      4922      4925      4928      4931
      4923      4922      4925      4926      4923      4922      4925      4927
      4923      4922      4925      4928      4924      4922      4925      4926
      4924      4922      4925      4927      4924      4922      4925      4928
      4925      4928      4931      4932      4925      4928      4931      4933
      4925      4928      4931      4934      4926      4925      4928      4929
      4926      4925      4928      4930      4926      4925      4928      4931
      4927      4925      4928      4929      4927      4925      4928      4930
      4927      4925      4928      4931      4928      4931      4934      4935
      4928      4931      4934      4936      4928      4931      4934      4937
      4929      4928      4931      4932      4929      4928      4931      4933
      4929      4928      4931      4934      4930      4928      4931      4932
      4930      4928      4931      4933      4930      4928      4931      4934
      4931      4934      4937      4938      4931      4934      4937      4939
      4931      4934      4937      4940      4932      4931      4934      4935
      4932      4931      4934      4936      4932      4931      4934      4937
      4933      4931      4934      4935      4933      4931      4934      4936
      4933      4931      4934      4937      4935      4934      4937      4938
      4935      4934      4937      4939      4935      4934      4937      4940
      4936      4934      4937      4938      4936      4934      4937      4939
      4936      4934      4937      4940      4941      4954      4957      4958
      4941      4954      4957      4959      4941      4954      4957      4963
      4942      4941      4946      4947      4942      4941      4946      4948
      4942      4941      4946      4949      4942      4941      4950      4951
      4942      4941      4950      4952      4942      4941      4950      4953
      4942      4941      4954      4955      4942      4941      4954      4956
      4942      4941      4954      4957      4943      4942      4941      4946
      4943      4942      4941      4950      4943      4942      4941      4954
      4944      4942      4941      4946      4944      4942      4941      4950
      4944      4942      4941      4954      4945      4942      4941      4946
      4945      4942      4941      4950      4945      4942      4941      4954
      4946      4941      4950      4951      4946      4941      4950      4952
      4946      4941      4950      4953      4946      4941      4954      4955
      4946      4941      4954      4956      4946      4941      4954      4957
      4947      4946      4941      4950      4947      4946      4941      4954
      4948      4946      4941      4950      4948      4946      4941      4954
      4949      4946      4941      4950      4949      4946      4941      4954
      4950      4941      4954      4955      4950      4941      4954      4956
      4950      4941      4954      4957      4951      4950      4941      4954
      4952      4950      4941      4954      4953      4950      4941      4954
      4954      4957      4963      4960      4955      4954      4957      4958
      4955      4954      4957      4959      4955      4954      4957      4963
      4956      4954      4957      4958      4956      4954      4957      4959
      4956      4954      4957      4963      4957      4963      4960      4961
      4957      4963      4960      4962      4957      4963      4960      4964
      4958      4957      4963      4960      4959      4957      4963      4960
      4960      4964      4965      4966      4960      4964      4965      4967
      4960      4964      4965      4968      4961      4960      4964      4965
      4962      4960      4964      4965      4963      4960      4964      4965
      4964      4965      4968      4969      4964      4965      4968      4970
      4964      4965      4968      4976      4965      4968      4970      4971
      4965      4968      4976      4977      4965      4968      4976      4978
      4965      4968      4976      4979      4966      4965      4968      4969
      4966      4965      4968      4970      4966      4965      4968      4976
      4967      4965      4968      4969      4967      4965      4968      4970
      4967      4965      4968      4976      4968      4970      4971      4972
      4968      4970      4971      4973      4968      4976      4979      4980
      4969      4968      4970      4971      4969      4968      4976      4977
      4969      4968      4976      4978      4969      4968      4976      4979
      4970      4968      4976      4977      4970      4968      4976      4978
      4970      4968      4976      4979      4970      4971      4973      4974
      4970      4971      4973      4975      4970      4971      4973      4985
      4971      4970      4968      4976      4971      4973      4985      4986
      4971      4973      4985      4987      4971      4973      4985      4988
      4972      4971      4973      4974      4972      4971      4973      4975
      4972      4971      4973      4985      4973      4985      4988      4989
      4973      4985      4988      4990      4973      4985      4988      4991
      4974      4973      4985      4986      4974      4973      4985      4987
      4974      4973      4985      4988      4975      4973      4985      4986
      4975      4973      4985      4987      4975      4973      4985      4988
      4976      4979      4980      4981      4976      4979      4980      4982
      4977      4976      4979      4980      4978      4976      4979      4980
      4979      4980      4982      4983      4979      4980      4982      4984
      4979      4980      4982      5030      4980      4982      5030      5031
      4980      4982      5030      5032      4980      4982      5030      5033
      4981      4980      4982      4983      4981      4980      4982      4984
      4981      4980      4982      5030      4982      5030      5033      5034
      4982      5030      5033      5035      4982      5030      5033      5036
      4983      4982      5030      5031      4983      4982      5030      5032
      4983      4982      5030      5033      4984      4982      5030      5031
      4984      4982      5030      5032      4984      4982      5030      5033
      4985      4988      4991      4992      4985      4988      4991      4993
      4985      4988      4991      4994      4986      4985      4988      4989
      4986      4985      4988      4990      4986      4985      4988      4991
      4987      4985      4988      4989      4987      4985      4988      4990
      4987      4985      4988      4991      4988      4991      4994      4995
      4988      4991      4994      4996      4988      4991      4994      4997
      4989      4988      4991      4992      4989      4988      4991      4993
      4989      4988      4991      4994      4990      4988      4991      4992
      4990      4988      4991      4993      4990      4988      4991      4994
      4991      4994      4997      4998      4991      4994      4997      4999
      4991      4994      4997      5000      4992      4991      4994      4995
      4992      4991      4994      4996      4992      4991      4994      4997
      4993      4991      4994      4995      4993      4991      4994      4996
      4993      4991      4994      4997      4994      4997      5000      5001
      4994      4997      5000      5002      4994      4997      5000      5003
      4995      4994      4997      4998      4995      4994      4997      4999
      4995      4994      4997      5000      4996      4994      4997      4998
      4996      4994      4997      4999      4996      4994      4997      5000
      4997      5000      5003      5004      4997      5000      5003      5005
      4998      4997      5000      5001      4998      4997      5000      5002
      4998      4997      5000      5003      4999      4997      5000      5001
      4999      4997      5000      5002      4999      4997      5000      5003
      5000      5003      5005      5006      5000      5003      5005      5007
      5001      5000      5003      5004      5001      5000      5003      5005
      5002      5000      5003      5004      5002      5000      5003      5005
      5003      5005      5007      5008      5003      5005      5007      5009
      5003      5005      5007      5010      5004      5003      5005      5006
      5004      5003      5005      5007      5005      5007      5010      5011
      5005      5007      5010      5012      5006      5005      5007      5008
      5006      5005      5007      5009      5006      5005      5007      5010
      5007      5010      5012      5013      5007      5010      5012      5014
      5008      5007      5010      5011      5008      5007      5010      5012
      5009      5007      5010      5011      5009      5007      5010      5012
      5010      5012      5014      5015      5010      5012      5014      5016
      5010      5012      5014      5017      5011      5010      5012      5013
      5011      5010      5012      5014      5012      5014      5017      5018
      5012      5014      5017      5019      5012      5014      5017      5020
      5013      5012      5014      5015      5013      5012      5014      5016
      5013      5012      5014      5017      5014      5017      5020      5021
      5014      5017      5020      5022      5014      5017      5020      5023
      5015      5014      5017      5018      5015      5014      5017      5019
      5015      5014      5017      5020      5016      5014      5017      5018
      5016      5014      5017      5019      5016      5014      5017      5020
      5017      5020      5023      5024      5017      5020      5023      5025
      5017      5020      5023      5026      5018      5017      5020      5021
      5018      5017      5020      5022      5018      5017      5020      5023
      5019      5017      5020      5021      5019      5017      5020      5022
      5019      5017      5020      5023      5020      5023      5026      5027
      5020      5023      5026      5028      5020      5023      5026      5029
      5021      5020      5023      5024      5021      5020      5023      5025
      5021      5020      5023      5026      5022      5020      5023      5024
      5022      5020      5023      5025      5022      5020      5023      5026
      5024      5023      5026      5027      5024      5023      5026      5028
      5024      5023      5026      5029      5025      5023      5026      5027
      5025      5023      5026      5028      5025      5023      5026      5029
      5030      5033      5036      5037      5030      5033      5036      5038
      5030      5033      5036      5039      5031      5030      5033      5034
      5031      5030      5033      5035      5031      5030      5033      5036
      5032      5030      5033      5034      5032      5030      5033      5035
      5032      5030      5033      5036      5033      5036      5039      5040
      5033      5036      5039      5041      5033      5036      5039      5042
      5034      5033      5036      5037      5034      5033      5036      5038
      5034      5033      5036      5039      5035      5033      5036      5037
      5035      5033      5036      5038      5035      5033      5036      5039
      5036      5039      5042      5043      5036      5039      5042      5044
      5036      5039      5042      5045      5037      5036      5039      5040
      5037      5036      5039      5041      5037      5036      5039      5042
      5038      5036      5039      5040      5038      5036      5039      5041
      5038      5036      5039      5042      5039      5042      5045      5046
      5039      5042      5045      5047      5039      5042      5045      5048
      5040      5039      5042      5043      5040      5039      5042      5044
      5040      5039      5042      5045      5041      5039      5042      5043
      5041      5039      5042      5044      5041      5039      5042      5045
      5042      5045      5048      5049      5042      5045      5048      5050
      5042      5045      5048      5051      5043      5042      5045      5046
      5043      5042      5045      5047      5043      5042      5045      5048
      5044      5042      5045      5046      5044      5042      5045      5047
      5044      5042      5045      5048      5045      5048      5051      5052
      5045      5048      5051      5053      5045      5048      5051      5054
      5046      5045      5048      5049      5046      5045      5048      5050
      5046      5045      5048      5051      5047      5045      5048      5049
      5047      5045      5048      5050      5047      5045      5048      5051
      5048      5051      5054      5055      5048      5051      5054      5056
      5048      5051      5054      5057      5049      5048      5051      5052
      5049      5048      5051      5053      5049      5048      5051      5054
      5050      5048      5051      5052      5050      5048      5051      5053
      5050      5048      5051      5054      5051      5054      5057      5058
      5051      5054      5057      5059      5051      5054      5057      5060
      5052      5051      5054      5055      5052      5051      5054      5056
      5052      5051      5054      5057      5053      5051      5054      5055
      5053      5051      5054      5056      5053      5051      5054      5057
      5054      5057      5060      5061      5054      5057      5060      5062
      5054      5057      5060      5063      5055      5054      5057      5058
      5055      5054      5057      5059      5055      5054      5057      5060
      5056      5054      5057      5058      5056      5054      5057      5059
      5056      5054      5057      5060      5057      5060      5063      5064
      5057      5060      5063      5065      5057      5060      5063      5066
      5058      5057      5060      5061      5058      5057      5060      5062
      5058      5057      5060      5063      5059      5057      5060      5061
      5059      5057      5060      5062      5059      5057      5060      5063
      5060      5063      5066      5067      5060      5063      5066      5068
      5060      5063      5066      5069      5061      5060      5063      5064
      5061      5060      5063      5065      5061      5060      5063      5066
      5062      5060      5063      5064      5062      5060      5063      5065
      5062      5060      5063      5066      5063      5066      5069      5070
      5063      5066      5069      5071      5063      5066      5069      5072
      5064      5063      5066      5067      5064      5063      5066      5068
      5064      5063      5066      5069      5065      5063      5066      5067
      5065      5063      5066      5068      5065      5063      5066      5069
      5066      5069      5072      5073      5066      5069      5072      5074
      5066      5069      5072      5075      5067      5066      5069      5070
      5067      5066      5069      5071      5067      5066      5069      5072
      5068      5066      5069      5070      5068      5066      5069      5071
      5068      5066      5069      5072      5069      5072      5075      5076
      5069      5072      5075      5077      5069      5072      5075      5078
      5070      5069      5072      5073      5070      5069      5072      5074
      5070      5069      5072      5075      5071      5069      5072      5073
      5071      5069      5072      5074      5071      5069      5072      5075
      5073      5072      5075      5076      5073      5072      5075      5077
      5073      5072      5075      5078      5074      5072      5075      5076
      5074      5072      5075      5077      5074      5072      5075      5078
      5079      5092      5095      5096      5079      5092      5095      5097
      5079      5092      5095      5102      5080      5079      5084      5085
      5080      5079      5084      5086      5080      5079      5084      5087
      5080      5079      5088      5089      5080      5079      5088      5090
      5080      5079      5088      5091      5080      5079      5092      5093
      5080      5079      5092      5094      5080      5079      5092      5095
      5081      5080      5079      5084      5081      5080      5079      5088
      5081      5080      5079      5092      5082      5080      5079      5084
      5082      5080      5079      5088      5082      5080      5079      5092
      5083      5080      5079      5084      5083      5080      5079      5088
      5083      5080      5079      5092      5084      5079      5088      5089
      5084      5079      5088      5090      5084      5079      5088      5091
      5084      5079      5092      5093      5084      5079      5092      5094
      5084      5079      5092      5095      5085      5084      5079      5088
      5085      5084      5079      5092      5086      5084      5079      5088
      5086      5084      5079      5092      5087      5084      5079      5088
      5087      5084      5079      5092      5088      5079      5092      5093
      5088      5079      5092      5094      5088      5079      5092      5095
      5089      5088      5079      5092      5090      5088      5079      5092
      5091      5088      5079      5092      5092      5095      5102      5098
      5093      5092      5095      5096      5093      5092      5095      5097
      5093      5092      5095      5102      5094      5092      5095      5096
      5094      5092      5095      5097      5094      5092      5095      5102
      5095      5102      5098      5099      5095      5102      5098      5100
      5095      5102      5098      5101      5096      5095      5102      5098
      5097      5095      5102      5098      5098      5101      5103      5104
      5098      5101      5103      5105      5098      5101      5103      5108
      5099      5098      5101      5103      5100      5098      5101      5103
      5101      5103      5108      5106      5101      5103      5108      5109
      5101      5103      5108      5110      5102      5098      5101      5103
      5103      5108      5106      5107      5103      5108      5106      5158
      5103      5108      5110      5111      5103      5108      5110      5112
      5103      5108      5110      5114      5104      5103      5108      5106
      5104      5103      5108      5109      5104      5103      5108      5110
      5105      5103      5108      5106      5105      5103      5108      5109
      5105      5103      5108      5110      5106      5108      5110      5111
      5106      5108      5110      5112      5106      5108      5110      5114
      5106      5158      5160      5161      5106      5158      5160      5162
      5106      5158      5160      5163      5107      5106      5108      5109
      5107      5106      5108      5110      5107      5106      5158      5159
      5107      5106      5158      5160      5108      5106      5158      5159
      5108      5106      5158      5160      5108      5110      5112      5113
      5108      5110      5114      5115      5108      5110      5114      5116
      5109      5108      5106      5158      5109      5108      5110      5111
      5109      5108      5110      5112      5109      5108      5110      5114
      5110      5108      5106      5158      5110      5114      5116      5117
      5110      5114      5116      5118      5111      5110      5112      5113
      5111      5110      5114      5115      5111      5110      5114      5116
      5112      5110      5114      5115      5112      5110      5114      5116
      5113      5112      5110      5114      5114      5116      5118      5119
      5114      5116      5118      5120      5114      5116      5118      5121
      5115      5114      5116      5117      5115      5114      5116      5118
      5116      5118      5121      5122      5116      5118      5121      5123
      5116      5118      5121      5124      5117      5116      5118      5119
      5117      5116      5118      5120      5117      5116      5118      5121
      5118      5121      5124      5125      5118      5121      5124      5126
      5118      5121      5124      5127      5119      5118      5121      5122
      5119      5118      5121      5123      5119      5118      5121      5124
      5120      5118      5121      5122      5120      5118      5121      5123
      5120      5118      5121      5124      5121      5124      5127      5128
      5121      5124      5127      5129      5121      5124      5127      5130
      5122      5121      5124      5125      5122      5121      5124      5126
      5122      5121      5124      5127      5123      5121      5124      5125
      5123      5121      5124      5126      5123      5121      5124      5127
      5124      5127      5130      5131      5124      5127      5130      5132
      5124      5127      5130      5133      5125      5124      5127      5128
      5125      5124      5127      5129      5125      5124      5127      5130
      5126      5124      5127      5128      5126      5124      5127      5129
      5126      5124      5127      5130      5127      5130      5133      5134
      5127      5130      5133      5135      5127      5130      5133      5136
      5128      5127      5130      5131      5128      5127      5130      5132
      5128      5127      5130      5133      5129      5127      5130      5131
      5129      5127      5130      5132      5129      5127      5130      5133
      5130      5133      5136      5137      5130      5133      5136      5138
      5130      5133      5136      5139      5131      5130      5133      5134
      5131      5130      5133      5135      5131      5130      5133      5136
      5132      5130      5133      5134      5132      5130      5133      5135
      5132      5130      5133      5136      5133      5136      5139      5140
      5133      5136      5139      5141      5133      5136      5139      5142
      5134      5133      5136      5137      5134      5133      5136      5138
      5134      5133      5136      5139      5135      5133      5136      5137
      5135      5133      5136      5138      5135      5133      5136      5139
      5136      5139      5142      5143      5136      5139      5142      5144
      5136      5139      5142      5145      5137      5136      5139      5140
      5137      5136      5139      5141      5137      5136      5139      5142
      5138      5136      5139      5140      5138      5136      5139      5141
      5138      5136      5139      5142      5139      5142      5145      5146
      5139      5142      5145      5147      5139      5142      5145      5148
      5140      5139      5142      5143      5140      5139      5142      5144
      5140      5139      5142      5145      5141      5139      5142      5143
      5141      5139      5142      5144      5141      5139      5142      5145
      5142      5145      5148      5149      5142      5145      5148      5150
      5142      5145      5148      5151      5143      5142      5145      5146
      5143      5142      5145      5147      5143      5142      5145      5148
      5144      5142      5145      5146      5144      5142      5145      5147
      5144      5142      5145      5148      5145      5148      5151      5152
      5145      5148      5151      5153      5145      5148      5151      5154
      5146      5145      5148      5149      5146      5145      5148      5150
      5146      5145      5148      5151      5147      5145      5148      5149
      5147      5145      5148      5150      5147      5145      5148      5151
      5148      5151      5154      5155      5148      5151      5154      5156
      5148      5151      5154      5157      5149      5148      5151      5152
      5149      5148      5151      5153      5149      5148      5151      5154
      5150      5148      5151      5152      5150      5148      5151      5153
      5150      5148      5151      5154      5152      5151      5154      5155
      5152      5151      5154      5156      5152      5151      5154      5157
      5153      5151      5154      5155      5153      5151      5154      5156
      5153      5151      5154      5157      5158      5160      5163      5164
      5158      5160      5163      5165      5158      5160      5163      5166
      5159      5158      5160      5161      5159      5158      5160      5162
      5159      5158      5160      5163      5160      5163      5166      5167
      5160      5163      5166      5168      5160      5163      5166      5169
      5161      5160      5163      5164      5161      5160      5163      5165
      5161      5160      5163      5166      5162      5160      5163      5164
      5162      5160      5163      5165      5162      5160      5163      5166
      5163      5166      5169      5170      5163      5166      5169      5171
      5163      5166      5169      5172      5164      5163      5166      5167
      5164      5163      5166      5168      5164      5163      5166      5169
      5165      5163      5166      5167      5165      5163      5166      5168
      5165      5163      5166      5169      5166      5169      5172      5173
      5166      5169      5172      5174      5166      5169      5172      5175
      5167      5166      5169      5170      5167      5166      5169      5171
      5167      5166      5169      5172      5168      5166      5169      5170
      5168      5166      5169      5171      5168      5166      5169      5172
      5169      5172      5175      5176      5169      5172      5175      5177
      5169      5172      5175      5178      5170      5169      5172      5173
      5170      5169      5172      5174      5170      5169      5172      5175
      5171      5169      5172      5173      5171      5169      5172      5174
      5171      5169      5172      5175      5172      5175      5178      5179
      5172      5175      5178      5180      5172      5175      5178      5181
      5173      5172      5175      5176      5173      5172      5175      5177
      5173      5172      5175      5178      5174      5172      5175      5176
      5174      5172      5175      5177      5174      5172      5175      5178
      5175      5178      5181      5182      5175      5178      5181      5183
      5176      5175      5178      5179      5176      5175      5178      5180
      5176      5175      5178      5181      5177      5175      5178      5179
      5177      5175      5178      5180      5177      5175      5178      5181
      5178      5181      5183      5184      5178      5181      5183      5185
      5179      5178      5181      5182      5179      5178      5181      5183
      5180      5178      5181      5182      5180      5178      5181      5183
      5181      5183      5185      5186      5181      5183      5185      5187
      5181      5183      5185      5188      5182      5181      5183      5184
      5182      5181      5183      5185      5183      5185      5188      5189
      5183      5185      5188      5190      5183      5185      5188      5191
      5184      5183      5185      5186      5184      5183      5185      5187
      5184      5183      5185      5188      5185      5188      5191      5192
      5185      5188      5191      5193      5185      5188      5191      5194
      5186      5185      5188      5189      5186      5185      5188      5190
      5186      5185      5188      5191      5187      5185      5188      5189
      5187      5185      5188      5190      5187      5185      5188      5191
      5188      5191      5194      5195      5188      5191      5194      5196
      5188      5191      5194      5197      5189      5188      5191      5192
      5189      5188      5191      5193      5189      5188      5191      5194
      5190      5188      5191      5192      5190      5188      5191      5193
      5190      5188      5191      5194      5191      5194      5197      5198
      5191      5194      5197      5199      5191      5194      5197      5200
      5192      5191      5194      5195      5192      5191      5194      5196
      5192      5191      5194      5197      5193      5191      5194      5195
      5193      5191      5194      5196      5193      5191      5194      5197
      5194      5197      5200      5201      5194      5197      5200      5202
      5194      5197      5200      5203      5195      5194      5197      5198
      5195      5194      5197      5199      5195      5194      5197      5200
      5196      5194      5197      5198      5196      5194      5197      5199
      5196      5194      5197      5200      5197      5200      5203      5204
      5197      5200      5203      5205      5197      5200      5203      5206
      5198      5197      5200      5201      5198      5197      5200      5202
      5198      5197      5200      5203      5199      5197      5200      5201
      5199      5197      5200      5202      5199      5197      5200      5203
      5200      5203      5206      5207      5200      5203      5206      5208
      5200      5203      5206      5209      5201      5200      5203      5204
      5201      5200      5203      5205      5201      5200      5203      5206
      5202      5200      5203      5204      5202      5200      5203      5205
      5202      5200      5203      5206      5204      5203      5206      5207
      5204      5203      5206      5208      5204      5203      5206      5209
      5205      5203      5206      5207      5205      5203      5206      5208
      5205      5203      5206      5209      5210      5223      5226      5227
      5210      5223      5226      5228      5210      5223      5226      5233
      5211      5210      5215      5216      5211      5210      5215      5217
      5211      5210      5215      5218      5211      5210      5219      5220
      5211      5210      5219      5221      5211      5210      5219      5222
      5211      5210      5223      5224      5211      5210      5223      5225
      5211      5210      5223      5226      5212      5211      5210      5215
      5212      5211      5210      5219      5212      5211      5210      5223
      5213      5211      5210      5215      5213      5211      5210      5219
      5213      5211      5210      5223      5214      5211      5210      5215
      5214      5211      5210      5219      5214      5211      5210      5223
      5215      5210      5219      5220      5215      5210      5219      5221
      5215      5210      5219      5222      5215      5210      5223      5224
      5215      5210      5223      5225      5215      5210      5223      5226
      5216      5215      5210      5219      5216      5215      5210      5223
      5217      5215      5210      5219      5217      5215      5210      5223
      5218      5215      5210      5219      5218      5215      5210      5223
      5219      5210      5223      5224      5219      5210      5223      5225
      5219      5210      5223      5226      5220      5219      5210      5223
      5221      5219      5210      5223      5222      5219      5210      5223
      5223      5226      5233      5229      5224      5223      5226      5227
      5224      5223      5226      5228      5224      5223      5226      5233
      5225      5223      5226      5227      5225      5223      5226      5228
      5225      5223      5226      5233      5226      5233      5229      5230
      5226      5233      5229      5231      5226      5233      5229      5232
      5227      5226      5233      5229      5228      5226      5233      5229
      5229      5232      5234      5235      5229      5232      5234      5236
      5229      5232      5234      5239      5230      5229      5232      5234
      5231      5229      5232      5234      5232      5234      5239      5237
      5232      5234      5239      5240      5232      5234      5239      5241
      5233      5229      5232      5234      5234      5239      5237      5238
      5234      5239      5237      5289      5234      5239      5241      5242
      5234      5239      5241      5243      5234      5239      5241      5245
      5235      5234      5239      5237      5235      5234      5239      5240
      5235      5234      5239      5241      5236      5234      5239      5237
      5236      5234      5239      5240      5236      5234      5239      5241
      5237      5239      5241      5242      5237      5239      5241      5243
      5237      5239      5241      5245      5237      5289      5291      5292
      5237      5289      5291      5293      5237      5289      5291      5294
      5238      5237      5239      5240      5238      5237      5239      5241
      5238      5237      5289      5290      5238      5237      5289      5291
      5239      5237      5289      5290      5239      5237      5289      5291
      5239      5241      5243      5244      5239      5241      5245      5246
      5239      5241      5245      5247      5240      5239      5237      5289
      5240      5239      5241      5242      5240      5239      5241      5243
      5240      5239      5241      5245      5241      5239      5237      5289
      5241      5245      5247      5248      5241      5245      5247      5249
      5242      5241      5243      5244      5242      5241      5245      5246
      5242      5241      5245      5247      5243      5241      5245      5246
      5243      5241      5245      5247      5244      5243      5241      5245
      5245      5247      5249      5250      5245      5247      5249      5251
      5245      5247      5249      5252      5246      5245      5247      5248
      5246      5245      5247      5249      5247      5249      5252      5253
      5247      5249      5252      5254      5247      5249      5252      5255
      5248      5247      5249      5250      5248      5247      5249      5251
      5248      5247      5249      5252      5249      5252      5255      5256
      5249      5252      5255      5257      5249      5252      5255      5258
      5250      5249      5252      5253      5250      5249      5252      5254
      5250      5249      5252      5255      5251      5249      5252      5253
      5251      5249      5252      5254      5251      5249      5252      5255
      5252      5255      5258      5259      5252      5255      5258      5260
      5252      5255      5258      5261      5253      5252      5255      5256
      5253      5252      5255      5257      5253      5252      5255      5258
      5254      5252      5255      5256      5254      5252      5255      5257
      5254      5252      5255      5258      5255      5258      5261      5262
      5255      5258      5261      5263      5255      5258      5261      5264
      5256      5255      5258      5259      5256      5255      5258      5260
      5256      5255      5258      5261      5257      5255      5258      5259
      5257      5255      5258      5260      5257      5255      5258      5261
      5258      5261      5264      5265      5258      5261      5264      5266
      5258      5261      5264      5267      5259      5258      5261      5262
      5259      5258      5261      5263      5259      5258      5261      5264
      5260      5258      5261      5262      5260      5258      5261      5263
      5260      5258      5261      5264      5261      5264      5267      5268
      5261      5264      5267      5269      5261      5264      5267      5270
      5262      5261      5264      5265      5262      5261      5264      5266
      5262      5261      5264      5267      5263      5261      5264      5265
      5263      5261      5264      5266      5263      5261      5264      5267
      5264      5267      5270      5271      5264      5267      5270      5272
      5264      5267      5270      5273      5265      5264      5267      5268
      5265      5264      5267      5269      5265      5264      5267      5270
      5266      5264      5267      5268      5266      5264      5267      5269
      5266      5264      5267      5270      5267      5270      5273      5274
      5267      5270      5273      5275      5267      5270      5273      5276
      5268      5267      5270      5271      5268      5267      5270      5272
      5268      5267      5270      5273      5269      5267      5270      5271
      5269      5267      5270      5272      5269      5267      5270      5273
      5270      5273      5276      5277      5270      5273      5276      5278
      5270      5273      5276      5279      5271      5270      5273      5274
      5271      5270      5273      5275      5271      5270      5273      5276
      5272      5270      5273      5274      5272      5270      5273      5275
      5272      5270      5273      5276      5273      5276      5279      5280
      5273      5276      5279      5281      5273      5276      5279      5282
      5274      5273      5276      5277      5274      5273      5276      5278
      5274      5273      5276      5279      5275      5273      5276      5277
      5275      5273      5276      5278      5275      5273      5276      5279
      5276      5279      5282      5283      5276      5279      5282      5284
      5276      5279      5282      5285      5277      5276      5279      5280
      5277      5276      5279      5281      5277      5276      5279      5282
      5278      5276      5279      5280      5278      5276      5279      5281
      5278      5276      5279      5282      5279      5282      5285      5286
      5279      5282      5285      5287      5279      5282      5285      5288
      5280      5279      5282      5283      5280      5279      5282      5284
      5280      5279      5282      5285      5281      5279      5282      5283
      5281      5279      5282      5284      5281      5279      5282      5285
      5283      5282      5285      5286      5283      5282      5285      5287
      5283      5282      5285      5288      5284      5282      5285      5286
      5284      5282      5285      5287      5284      5282      5285      5288
      5289      5291      5294      5295      5289      5291      5294      5296
      5289      5291      5294      5297      5290      5289      5291      5292
      5290      5289      5291      5293      5290      5289      5291      5294
      5291      5294      5297      5298      5291      5294      5297      5299
      5291      5294      5297      5300      5292      5291      5294      5295
      5292      5291      5294      5296      5292      5291      5294      5297
      5293      5291      5294      5295      5293      5291      5294      5296
      5293      5291      5294      5297      5294      5297      5300      5301
      5294      5297      5300      5302      5294      5297      5300      5303
      5295      5294      5297      5298      5295      5294      5297      5299
      5295      5294      5297      5300      5296      5294      5297      5298
      5296      5294      5297      5299      5296      5294      5297      5300
      5297      5300      5303      5304      5297      5300      5303      5305
      5297      5300      5303      5306      5298      5297      5300      5301
      5298      5297      5300      5302      5298      5297      5300      5303
      5299      5297      5300      5301      5299      5297      5300      5302
      5299      5297      5300      5303      5300      5303      5306      5307
      5300      5303      5306      5308      5300      5303      5306      5309
      5301      5300      5303      5304      5301      5300      5303      5305
      5301      5300      5303      5306      5302      5300      5303      5304
      5302      5300      5303      5305      5302      5300      5303      5306
      5303      5306      5309      5310      5303      5306      5309      5311
      5303      5306      5309      5312      5304      5303      5306      5307
      5304      5303      5306      5308      5304      5303      5306      5309
      5305      5303      5306      5307      5305      5303      5306      5308
      5305      5303      5306      5309      5306      5309      5312      5313
      5306      5309      5312      5314      5307      5306      5309      5310
      5307      5306      5309      5311      5307      5306      5309      5312
      5308      5306      5309      5310      5308      5306      5309      5311
      5308      5306      5309      5312      5309      5312      5314      5315
      5309      5312      5314      5316      5310      5309      5312      5313
      5310      5309      5312      5314      5311      5309      5312      5313
      5311      5309      5312      5314      5312      5314      5316      5317
      5312      5314      5316      5318      5312      5314      5316      5319
      5313      5312      5314      5315      5313      5312      5314      5316
      5314      5316      5319      5320      5314      5316      5319      5321
      5314      5316      5319      5322      5315      5314      5316      5317
      5315      5314      5316      5318      5315      5314      5316      5319
      5316      5319      5322      5323      5316      5319      5322      5324
      5316      5319      5322      5325      5317      5316      5319      5320
      5317      5316      5319      5321      5317      5316      5319      5322
      5318      5316      5319      5320      5318      5316      5319      5321
      5318      5316      5319      5322      5319      5322      5325      5326
      5319      5322      5325      5327      5319      5322      5325      5328
      5320      5319      5322      5323      5320      5319      5322      5324
      5320      5319      5322      5325      5321      5319      5322      5323
      5321      5319      5322      5324      5321      5319      5322      5325
      5322      5325      5328      5329      5322      5325      5328      5330
      5322      5325      5328      5331      5323      5322      5325      5326
      5323      5322      5325      5327      5323      5322      5325      5328
      5324      5322      5325      5326      5324      5322      5325      5327
      5324      5322      5325      5328      5325      5328      5331      5332
      5325      5328      5331      5333      5325      5328      5331      5334
      5326      5325      5328      5329      5326      5325      5328      5330
      5326      5325      5328      5331      5327      5325      5328      5329
      5327      5325      5328      5330      5327      5325      5328      5331
      5328      5331      5334      5335      5328      5331      5334      5336
      5328      5331      5334      5337      5329      5328      5331      5332
      5329      5328      5331      5333      5329      5328      5331      5334
      5330      5328      5331      5332      5330      5328      5331      5333
      5330      5328      5331      5334      5331      5334      5337      5338
      5331      5334      5337      5339      5331      5334      5337      5340
      5332      5331      5334      5335      5332      5331      5334      5336
      5332      5331      5334      5337      5333      5331      5334      5335
      5333      5331      5334      5336      5333      5331      5334      5337
      5335      5334      5337      5338      5335      5334      5337      5339
      5335      5334      5337      5340      5336      5334      5337      5338
      5336      5334      5337      5339      5336      5334      5337      5340
      5341      5345      5348      5349      5341      5345      5348      5379
      5341      5387      5384      5379      5341      5387      5384      5385
      5341      5387      5384      5386      5342      5341      5343      5344
      5342      5341      5345      5346      5342      5341      5345      5347
      5342      5341      5345      5348      5342      5341      5387      5384
      5342      5341      5387      5388      5342      5341      5387      5389
      5343      5341      5345      5346      5343      5341      5345      5347
      5343      5341      5345      5348      5343      5341      5387      5384
      5343      5341      5387      5388      5343      5341      5387      5389
      5344      5343      5341      5345      5344      5343      5341      5387
      5345      5341      5387      5384      5345      5341      5387      5388
      5345      5341      5387      5389      5345      5348      5349      5350
      5345      5348      5349      5351      5345      5348      5379      5377
      5345      5348      5379      5380      5345      5348      5379      5384
      5346      5345      5341      5387      5346      5345      5348      5349
      5346      5345      5348      5379      5347      5345      5341      5387
      5347      5345      5348      5349      5347      5345      5348      5379
      5348      5345      5341      5387      5348      5349      5351      5352
      5348      5349      5351      5353      5348      5349      5351      5354
      5348      5379      5377      5354      5348      5379      5377      5374
      5348      5379      5377      5378      5348      5379      5380      5381
      5348      5379      5380      5382      5348      5379      5380      5383
      5348      5379      5384      5385      5348      5379      5384      5386
      5348      5379      5384      5387      5349      5348      5379      5377
      5349      5348      5379      5380      5349      5348      5379      5384
      5349      5351      5354      5355      5349      5351      5354      5356
      5349      5351      5354      5377      5350      5349      5348      5379
      5350      5349      5351      5352      5350      5349      5351      5353
      5350      5349      5351      5354      5351      5349      5348      5379
      5351      5354      5356      5357      5351      5354      5356      5358
      5351      5354      5356      5366      5351      5354      5377      5374
      5351      5354      5377      5378      5351      5354      5377      5379
      5352      5351      5354      5355      5352      5351      5354      5356
      5352      5351      5354      5377      5353      5351      5354      5355
      5353      5351      5354      5356      5353      5351      5354      5377
      5354      5356      5358      5359      5354      5356      5358      5360
      5354      5356      5358      5361      5354      5356      5366      5364
      5354      5356      5366      5367      5354      5356      5366      5371
      5354      5377      5374      5371      5354      5377      5374      5375
      5354      5377      5374      5376      5354      5377      5379      5380
      5354      5377      5379      5384      5355      5354      5356      5357
      5355      5354      5356      5358      5355      5354      5356      5366
      5355      5354      5377      5374      5355      5354      5377      5378
      5355      5354      5377      5379      5356      5354      5377      5374
      5356      5354      5377      5378      5356      5354      5377      5379
      5356      5358      5361      5362      5356      5358      5361      5363
      5356      5358      5361      5364      5356      5366      5364      5361
      5356      5366      5364      5365      5356      5366      5364      5390
      5356      5366      5367      5368      5356      5366      5367      5369
      5356      5366      5367      5370      5356      5366      5371      5372
      5356      5366      5371      5373      5356      5366      5371      5374
      5357      5356      5354      5377      5357      5356      5358      5359
      5357      5356      5358      5360      5357      5356      5358      5361
      5357      5356      5366      5364      5357      5356      5366      5367
      5357      5356      5366      5371      5358      5356      5354      5377
      5358      5356      5366      5364      5358      5356      5366      5367
      5358      5356      5366      5371      5358      5361      5364      5365
      5358      5361      5364      5366      5358      5361      5364      5390
      5359      5358      5356      5366      5359      5358      5361      5362
      5359      5358      5361      5363      5359      5358      5361      5364
      5360      5358      5356      5366      5360      5358      5361      5362
      5360      5358      5361      5363      5360      5358      5361      5364
      5361      5358      5356      5366      5361      5364      5366      5367
      5361      5364      5366      5371      5361      5364      5390      5391
      5361      5364      5390      5392      5361      5364      5390      5396
      5362      5361      5364      5365      5362      5361      5364      5366
      5362      5361      5364      5390      5363      5361      5364      5365
      5363      5361      5364      5366      5363      5361      5364      5390
      5364      5366      5367      5368      5364      5366      5367      5369
      5364      5366      5367      5370      5364      5366      5371      5372
      5364      5366      5371      5373      5364      5366      5371      5374
      5364      5390      5392      5393      5364      5390      5392      5394
      5364      5390      5392      5395      5364      5390      5396      5397
      5364      5390      5396      5398      5364      5390      5396      5399
      5365      5364      5366      5367      5365      5364      5366      5371
      5365      5364      5390      5391      5365      5364      5390      5392
      5365      5364      5390      5396      5366      5356      5354      5377
      5366      5364      5390      5391      5366      5364      5390      5392
      5366      5364      5390      5396      5366      5371      5374      5375
      5366      5371      5374      5376      5366      5371      5374      5377
      5367      5366      5364      5390      5367      5366      5371      5372
      5367      5366      5371      5373      5367      5366      5371      5374
      5368      5367      5366      5371      5369      5367      5366      5371
      5370      5367      5366      5371      5371      5366      5364      5390
      5371      5374      5377      5378      5371      5374      5377      5379
      5372      5371      5374      5375      5372      5371      5374      5376
      5372      5371      5374      5377      5373      5371      5374      5375
      5373      5371      5374      5376      5373      5371      5374      5377
      5374      5377      5379      5380      5374      5377      5379      5384
      5375      5374      5377      5378      5375      5374      5377      5379
      5376      5374      5377      5378      5376      5374      5377      5379
      5377      5379      5380      5381      5377      5379      5380      5382
      5377      5379      5380      5383      5377      5379      5384      5385
      5377      5379      5384      5386      5377      5379      5384      5387
      5378      5377      5379      5380      5378      5377      5379      5384
      5379      5384      5387      5388      5379      5384      5387      5389
      5380      5379      5384      5385      5380      5379      5384      5386
      5380      5379      5384      5387      5381      5380      5379      5384
      5382      5380      5379      5384      5383      5380      5379      5384
      5385      5384      5387      5388      5385      5384      5387      5389
      5386      5384      5387      5388      5386      5384      5387      5389
      5390      5396      5399      5400      5390      5396      5399      5401
      5390      5396      5399      5402      5391      5390      5392      5393
      5391      5390      5392      5394      5391      5390      5392      5395
      5391      5390      5396      5397      5391      5390      5396      5398
      5391      5390      5396      5399      5392      5390      5396      5397
      5392      5390      5396      5398      5392      5390      5396      5399
      5393      5392      5390      5396      5394      5392      5390      5396
      5395      5392      5390      5396      5396      5399      5402      5403
      5396      5399      5402      5404      5396      5399      5402      5405
      5397      5396      5399      5400      5397      5396      5399      5401
      5397      5396      5399      5402      5398      5396      5399      5400
      5398      5396      5399      5401      5398      5396      5399      5402
      5399      5402      5405      5406      5399      5402      5405      5407
      5399      5402      5405      5411      5400      5399      5402      5403
      5400      5399      5402      5404      5400      5399      5402      5405
      5401      5399      5402      5403      5401      5399      5402      5404
      5401      5399      5402      5405      5402      5405      5407      5408
      5402      5405      5407      5409      5402      5405      5407      5410
      5402      5405      5411      5412      5402      5405      5411      5413
      5402      5405      5411      5414      5403      5402      5405      5406
      5403      5402      5405      5407      5403      5402      5405      5411
      5404      5402      5405      5406      5404      5402      5405      5407
      5404      5402      5405      5411      5406      5405      5407      5408
      5406      5405      5407      5409      5406      5405      5407      5410
      5406      5405      5411      5412      5406      5405      5411      5413
      5406      5405      5411      5414      5407      5405      5411      5412
      5407      5405      5411      5413      5407      5405      5411      5414
      5408      5407      5405      5411      5409      5407      5405      5411
      5410      5407      5405      5411      5415      5419      5422      5423
      5415      5419      5422      5424      5415      5419      5422      5428
      5416      5415      5419      5420      5416      5415      5419      5421
      5416      5415      5419      5422      5417      5415      5419      5420
      5417      5415      5419      5421      5417      5415      5419      5422
      5418      5415      5419      5420      5418      5415      5419      5421
      5418      5415      5419      5422      5419      5422      5428      5425
      5420      5419      5422      5423      5420      5419      5422      5424
      5420      5419      5422      5428      5421      5419      5422      5423
      5421      5419      5422      5424      5421      5419      5422      5428
      5422      5428      5425      5426      5422      5428      5425      5427
      5422      5428      5425      5429      5423      5422      5428      5425
      5424      5422      5428      5425      5425      5429      5430      5431
      5425      5429      5430      5432      5425      5429      5430      5433
      5426      5425      5429      5430      5427      5425      5429      5430
      5428      5425      5429      5430      5429      5430      5433      5434
      5429      5430      5433      5435      5429      5430      5433      5441
      5430      5433      5435      5436      5430      5433      5441      5442
      5430      5433      5441      5443      5430      5433      5441      5444
      5431      5430      5433      5434      5431      5430      5433      5435
      5431      5430      5433      5441      5432      5430      5433      5434
      5432      5430      5433      5435      5432      5430      5433      5441
      5433      5435      5436      5437      5433      5435      5436      5438
      5433      5441      5444      5445      5434      5433      5435      5436
      5434      5433      5441      5442      5434      5433      5441      5443
      5434      5433      5441      5444      5435      5433      5441      5442
      5435      5433      5441      5443      5435      5433      5441      5444
      5435      5436      5438      5439      5435      5436      5438      5440
      5435      5436      5438      5450      5436      5435      5433      5441
      5436      5438      5450      5451      5436      5438      5450      5452
      5436      5438      5450      5453      5437      5436      5438      5439
      5437      5436      5438      5440      5437      5436      5438      5450
      5438      5450      5453      5454      5438      5450      5453      5455
      5438      5450      5453      5456      5439      5438      5450      5451
      5439      5438      5450      5452      5439      5438      5450      5453
      5440      5438      5450      5451      5440      5438      5450      5452
      5440      5438      5450      5453      5441      5444      5445      5446
      5441      5444      5445      5447      5442      5441      5444      5445
      5443      5441      5444      5445      5444      5445      5447      5448
      5444      5445      5447      5449      5444      5445      5447      5497
      5445      5447      5497      5498      5445      5447      5497      5499
      5445      5447      5497      5500      5446      5445      5447      5448
      5446      5445      5447      5449      5446      5445      5447      5497
      5447      5497      5500      5501      5447      5497      5500      5502
      5447      5497      5500      5503      5448      5447      5497      5498
      5448      5447      5497      5499      5448      5447      5497      5500
      5449      5447      5497      5498      5449      5447      5497      5499
      5449      5447      5497      5500      5450      5453      5456      5457
      5450      5453      5456      5458      5450      5453      5456      5459
      5451      5450      5453      5454      5451      5450      5453      5455
      5451      5450      5453      5456      5452      5450      5453      5454
      5452      5450      5453      5455      5452      5450      5453      5456
      5453      5456      5459      5460      5453      5456      5459      5461
      5453      5456      5459      5462      5454      5453      5456      5457
      5454      5453      5456      5458      5454      5453      5456      5459
      5455      5453      5456      5457      5455      5453      5456      5458
      5455      5453      5456      5459      5456      5459      5462      5463
      5456      5459      5462      5464      5456      5459      5462      5465
      5457      5456      5459      5460      5457      5456      5459      5461
      5457      5456      5459      5462      5458      5456      5459      5460
      5458      5456      5459      5461      5458      5456      5459      5462
      5459      5462      5465      5466      5459      5462      5465      5467
      5459      5462      5465      5468      5460      5459      5462      5463
      5460      5459      5462      5464      5460      5459      5462      5465
      5461      5459      5462      5463      5461      5459      5462      5464
      5461      5459      5462      5465      5462      5465      5468      5469
      5462      5465      5468      5470      5463      5462      5465      5466
      5463      5462      5465      5467      5463      5462      5465      5468
      5464      5462      5465      5466      5464      5462      5465      5467
      5464      5462      5465      5468      5465      5468      5470      5471
      5465      5468      5470      5472      5466      5465      5468      5469
      5466      5465      5468      5470      5467      5465      5468      5469
      5467      5465      5468      5470      5468      5470      5472      5473
      5468      5470      5472      5474      5468      5470      5472      5475
      5469      5468      5470      5471      5469      5468      5470      5472
      5470      5472      5475      5476      5470      5472      5475      5477
      5470      5472      5475      5478      5471      5470      5472      5473
      5471      5470      5472      5474      5471      5470      5472      5475
      5472      5475      5478      5479      5472      5475      5478      5480
      5472      5475      5478      5481      5473      5472      5475      5476
      5473      5472      5475      5477      5473      5472      5475      5478
      5474      5472      5475      5476      5474      5472      5475      5477
      5474      5472      5475      5478      5475      5478      5481      5482
      5475      5478      5481      5483      5475      5478      5481      5484
      5476      5475      5478      5479      5476      5475      5478      5480
      5476      5475      5478      5481      5477      5475      5478      5479
      5477      5475      5478      5480      5477      5475      5478      5481
      5478      5481      5484      5485      5478      5481      5484      5486
      5478      5481      5484      5487      5479      5478      5481      5482
      5479      5478      5481      5483      5479      5478      5481      5484
      5480      5478      5481      5482      5480      5478      5481      5483
      5480      5478      5481      5484      5481      5484      5487      5488
      5481      5484      5487      5489      5481      5484      5487      5490
      5482      5481      5484      5485      5482      5481      5484      5486
      5482      5481      5484      5487      5483      5481      5484      5485
      5483      5481      5484      5486      5483      5481      5484      5487
      5484      5487      5490      5491      5484      5487      5490      5492
      5484      5487      5490      5493      5485      5484      5487      5488
      5485      5484      5487      5489      5485      5484      5487      5490
      5486      5484      5487      5488      5486      5484      5487      5489
      5486      5484      5487      5490      5487      5490      5493      5494
      5487      5490      5493      5495      5487      5490      5493      5496
      5488      5487      5490      5491      5488      5487      5490      5492
      5488      5487      5490      5493      5489      5487      5490      5491
      5489      5487      5490      5492      5489      5487      5490      5493
      5491      5490      5493      5494      5491      5490      5493      5495
      5491      5490      5493      5496      5492      5490      5493      5494
      5492      5490      5493      5495      5492      5490      5493      5496
      5497      5500      5503      5504      5497      5500      5503      5505
      5497      5500      5503      5506      5498      5497      5500      5501
      5498      5497      5500      5502      5498      5497      5500      5503
      5499      5497      5500      5501      5499      5497      5500      5502
      5499      5497      5500      5503      5500      5503      5506      5507
      5500      5503      5506      5508      5500      5503      5506      5509
      5501      5500      5503      5504      5501      5500      5503      5505
      5501      5500      5503      5506      5502      5500      5503      5504
      5502      5500      5503      5505      5502      5500      5503      5506
      5503      5506      5509      5510      5503      5506      5509      5511
      5503      5506      5509      5512      5504      5503      5506      5507
      5504      5503      5506      5508      5504      5503      5506      5509
      5505      5503      5506      5507      5505      5503      5506      5508
      5505      5503      5506      5509      5506      5509      5512      5513
      5506      5509      5512      5514      5506      5509      5512      5515
      5507      5506      5509      5510      5507      5506      5509      5511
      5507      5506      5509      5512      5508      5506      5509      5510
      5508      5506      5509      5511      5508      5506      5509      5512
      5509      5512      5515      5516      5509      5512      5515      5517
      5509      5512      5515      5518      5510      5509      5512      5513
      5510      5509      5512      5514      5510      5509      5512      5515
      5511      5509      5512      5513      5511      5509      5512      5514
      5511      5509      5512      5515      5512      5515      5518      5519
      5512      5515      5518      5520      5512      5515      5518      5521
      5513      5512      5515      5516      5513      5512      5515      5517
      5513      5512      5515      5518      5514      5512      5515      5516
      5514      5512      5515      5517      5514      5512      5515      5518
      5515      5518      5521      5522      5515      5518      5521      5523
      5515      5518      5521      5524      5516      5515      5518      5519
      5516      5515      5518      5520      5516      5515      5518      5521
      5517      5515      5518      5519      5517      5515      5518      5520
      5517      5515      5518      5521      5518      5521      5524      5525
      5518      5521      5524      5526      5518      5521      5524      5527
      5519      5518      5521      5522      5519      5518      5521      5523
      5519      5518      5521      5524      5520      5518      5521      5522
      5520      5518      5521      5523      5520      5518      5521      5524
      5521      5524      5527      5528      5521      5524      5527      5529
      5521      5524      5527      5530      5522      5521      5524      5525
      5522      5521      5524      5526      5522      5521      5524      5527
      5523      5521      5524      5525      5523      5521      5524      5526
      5523      5521      5524      5527      5524      5527      5530      5531
      5524      5527      5530      5532      5524      5527      5530      5533
      5525      5524      5527      5528      5525      5524      5527      5529
      5525      5524      5527      5530      5526      5524      5527      5528
      5526      5524      5527      5529      5526      5524      5527      5530
      5527      5530      5533      5534      5527      5530      5533      5535
      5527      5530      5533      5536      5528      5527      5530      5531
      5528      5527      5530      5532      5528      5527      5530      5533
      5529      5527      5530      5531      5529      5527      5530      5532
      5529      5527      5530      5533      5530      5533      5536      5537
      5530      5533      5536      5538      5530      5533      5536      5539
      5531      5530      5533      5534      5531      5530      5533      5535
      5531      5530      5533      5536      5532      5530      5533      5534
      5532      5530      5533      5535      5532      5530      5533      5536
      5533      5536      5539      5540      5533      5536      5539      5541
      5533      5536      5539      5542      5534      5533      5536      5537
      5534      5533      5536      5538      5534      5533      5536      5539
      5535      5533      5536      5537      5535      5533      5536      5538
      5535      5533      5536      5539      5536      5539      5542      5543
      5536      5539      5542      5544      5536      5539      5542      5545
      5537      5536      5539      5540      5537      5536      5539      5541
      5537      5536      5539      5542      5538      5536      5539      5540
      5538      5536      5539      5541      5538      5536      5539      5542
      5540      5539      5542      5543      5540      5539      5542      5544
      5540      5539      5542      5545      5541      5539      5542      5543
      5541      5539      5542      5544      5541      5539      5542      5545
      5546      5550      5553      5554      5546      5550      5553      5584
      5546      5592      5589      5584      5546      5592      5589      5590
      5546      5592      5589      5591      5547      5546      5548      5549
      5547      5546      5550      5551      5547      5546      5550      5552
      5547      5546      5550      5553      5547      5546      5592      5589
      5547      5546      5592      5593      5547      5546      5592      5594
      5548      5546      5550      5551      5548      5546      5550      5552
      5548      5546      5550      5553      5548      5546      5592      5589
      5548      5546      5592      5593      5548      5546      5592      5594
      5549      5548      5546      5550      5549      5548      5546      5592
      5550      5546      5592      5589      5550      5546      5592      5593
      5550      5546      5592      5594      5550      5553      5554      5555
      5550      5553      5554      5556      5550      5553      5584      5582
      5550      5553      5584      5585      5550      5553      5584      5589
      5551      5550      5546      5592      5551      5550      5553      5554
      5551      5550      5553      5584      5552      5550      5546      5592
      5552      5550      5553      5554      5552      5550      5553      5584
      5553      5550      5546      5592      5553      5554      5556      5557
      5553      5554      5556      5558      5553      5554      5556      5559
      5553      5584      5582      5559      5553      5584      5582      5579
      5553      5584      5582      5583      5553      5584      5585      5586
      5553      5584      5585      5587      5553      5584      5585      5588
      5553      5584      5589      5590      5553      5584      5589      5591
      5553      5584      5589      5592      5554      5553      5584      5582
      5554      5553      5584      5585      5554      5553      5584      5589
      5554      5556      5559      5560      5554      5556      5559      5561
      5554      5556      5559      5582      5555      5554      5553      5584
      5555      5554      5556      5557      5555      5554      5556      5558
      5555      5554      5556      5559      5556      5554      5553      5584
      5556      5559      5561      5562      5556      5559      5561      5563
      5556      5559      5561      5571      5556      5559      5582      5579
      5556      5559      5582      5583      5556      5559      5582      5584
      5557      5556      5559      5560      5557      5556      5559      5561
      5557      5556      5559      5582      5558      5556      5559      5560
      5558      5556      5559      5561      5558      5556      5559      5582
      5559      5561      5563      5564      5559      5561      5563      5565
      5559      5561      5563      5566      5559      5561      5571      5569
      5559      5561      5571      5572      5559      5561      5571      5576
      5559      5582      5579      5576      5559      5582      5579      5580
      5559      5582      5579      5581      5559      5582      5584      5585
      5559      5582      5584      5589      5560      5559      5561      5562
      5560      5559      5561      5563      5560      5559      5561      5571
      5560      5559      5582      5579      5560      5559      5582      5583
      5560      5559      5582      5584      5561      5559      5582      5579
      5561      5559      5582      5583      5561      5559      5582      5584
      5561      5563      5566      5567      5561      5563      5566      5568
      5561      5563      5566      5569      5561      5571      5569      5566
      5561      5571      5569      5570      5561      5571      5569      5595
      5561      5571      5572      5573      5561      5571      5572      5574
      5561      5571      5572      5575      5561      5571      5576      5577
      5561      5571      5576      5578      5561      5571      5576      5579
      5562      5561      5559      5582      5562      5561      5563      5564
      5562      5561      5563      5565      5562      5561      5563      5566
      5562      5561      5571      5569      5562      5561      5571      5572
      5562      5561      5571      5576      5563      5561      5559      5582
      5563      5561      5571      5569      5563      5561      5571      5572
      5563      5561      5571      5576      5563      5566      5569      5570
      5563      5566      5569      5571      5563      5566      5569      5595
      5564      5563      5561      5571      5564      5563      5566      5567
      5564      5563      5566      5568      5564      5563      5566      5569
      5565      5563      5561      5571      5565      5563      5566      5567
      5565      5563      5566      5568      5565      5563      5566      5569
      5566      5563      5561      5571      5566      5569      5571      5572
      5566      5569      5571      5576      5566      5569      5595      5596
      5566      5569      5595      5597      5566      5569      5595      5601
      5567      5566      5569      5570      5567      5566      5569      5571
      5567      5566      5569      5595      5568      5566      5569      5570
      5568      5566      5569      5571      5568      5566      5569      5595
      5569      5571      5572      5573      5569      5571      5572      5574
      5569      5571      5572      5575      5569      5571      5576      5577
      5569      5571      5576      5578      5569      5571      5576      5579
      5569      5595      5597      5598      5569      5595      5597      5599
      5569      5595      5597      5600      5569      5595      5601      5602
      5569      5595      5601      5603      5569      5595      5601      5604
      5570      5569      5571      5572      5570      5569      5571      5576
      5570      5569      5595      5596      5570      5569      5595      5597
      5570      5569      5595      5601      5571      5561      5559      5582
      5571      5569      5595      5596      5571      5569      5595      5597
      5571      5569      5595      5601      5571      5576      5579      5580
      5571      5576      5579      5581      5571      5576      5579      5582
      5572      5571      5569      5595      5572      5571      5576      5577
      5572      5571      5576      5578      5572      5571      5576      5579
      5573      5572      5571      5576      5574      5572      5571      5576
      5575      5572      5571      5576      5576      5571      5569      5595
      5576      5579      5582      5583      5576      5579      5582      5584
      5577      5576      5579      5580      5577      5576      5579      5581
      5577      5576      5579      5582      5578      5576      5579      5580
      5578      5576      5579      5581      5578      5576      5579      5582
      5579      5582      5584      5585      5579      5582      5584      5589
      5580      5579      5582      5583      5580      5579      5582      5584
      5581      5579      5582      5583      5581      5579      5582      5584
      5582      5584      5585      5586      5582      5584      5585      5587
      5582      5584      5585      5588      5582      5584      5589      5590
      5582      5584      5589      5591      5582      5584      5589      5592
      5583      5582      5584      5585      5583      5582      5584      5589
      5584      5589      5592      5593      5584      5589      5592      5594
      5585      5584      5589      5590      5585      5584      5589      5591
      5585      5584      5589      5592      5586      5585      5584      5589
      5587      5585      5584      5589      5588      5585      5584      5589
      5590      5589      5592      5593      5590      5589      5592      5594
      5591      5589      5592      5593      5591      5589      5592      5594
      5595      5601      5604      5605      5595      5601      5604      5606
      5595      5601      5604      5607      5596      5595      5597      5598
      5596      5595      5597      5599      5596      5595      5597      5600
      5596      5595      5601      5602      5596      5595      5601      5603
      5596      5595      5601      5604      5597      5595      5601      5602
      5597      5595      5601      5603      5597      5595      5601      5604
      5598      5597      5595      5601      5599      5597      5595      5601
      5600      5597      5595      5601      5601      5604      5607      5608
      5601      5604      5607      5609      5601      5604      5607      5610
      5602      5601      5604      5605      5602      5601      5604      5606
      5602      5601      5604      5607      5603      5601      5604      5605
      5603      5601      5604      5606      5603      5601      5604      5607
      5604      5607      5610      5611      5604      5607      5610      5612
      5604      5607      5610      5616      5605      5604      5607      5608
      5605      5604      5607      5609      5605      5604      5607      5610
      5606      5604      5607      5608      5606      5604      5607      5609
      5606      5604      5607      5610      5607      5610      5612      5613
      5607      5610      5612      5614      5607      5610      5612      5615
      5607      5610      5616      5617      5607      5610      5616      5618
      5607      5610      5616      5619      5608      5607      5610      5611
      5608      5607      5610      5612      5608      5607      5610      5616
      5609      5607      5610      5611      5609      5607      5610      5612
      5609      5607      5610      5616      5611      5610      5612      5613
      5611      5610      5612      5614      5611      5610      5612      5615
      5611      5610      5616      5617      5611      5610      5616      5618
      5611      5610      5616      5619      5612      5610      5616      5617
      5612      5610      5616      5618      5612      5610      5616      5619
      5613      5612      5610      5616      5614      5612      5610      5616
      5615      5612      5610      5616      5620      5624      5627      5628
      5620      5624      5627      5629      5620      5624      5627      5633
      5621      5620      5624      5625      5621      5620      5624      5626
      5621      5620      5624      5627      5622      5620      5624      5625
      5622      5620      5624      5626      5622      5620      5624      5627
      5623      5620      5624      5625      5623      5620      5624      5626
      5623      5620      5624      5627      5624      5627      5633      5630
      5625      5624      5627      5628      5625      5624      5627      5629
      5625      5624      5627      5633      5626      5624      5627      5628
      5626      5624      5627      5629      5626      5624      5627      5633
      5627      5633      5630      5631      5627      5633      5630      5632
      5627      5633      5630      5634      5628      5627      5633      5630
      5629      5627      5633      5630      5630      5634      5635      5636
      5630      5634      5635      5637      5630      5634      5635      5638
      5631      5630      5634      5635      5632      5630      5634      5635
      5633      5630      5634      5635      5634      5635      5638      5639
      5634      5635      5638      5640      5634      5635      5638      5646
      5635      5638      5640      5641      5635      5638      5646      5647
      5635      5638      5646      5648      5635      5638      5646      5649
      5636      5635      5638      5639      5636      5635      5638      5640
      5636      5635      5638      5646      5637      5635      5638      5639
      5637      5635      5638      5640      5637      5635      5638      5646
      5638      5640      5641      5642      5638      5640      5641      5643
      5638      5646      5649      5650      5639      5638      5640      5641
      5639      5638      5646      5647      5639      5638      5646      5648
      5639      5638      5646      5649      5640      5638      5646      5647
      5640      5638      5646      5648      5640      5638      5646      5649
      5640      5641      5643      5644      5640      5641      5643      5645
      5640      5641      5643      5655      5641      5640      5638      5646
      5641      5643      5655      5656      5641      5643      5655      5657
      5641      5643      5655      5658      5642      5641      5643      5644
      5642      5641      5643      5645      5642      5641      5643      5655
      5643      5655      5658      5659      5643      5655      5658      5660
      5643      5655      5658      5661      5644      5643      5655      5656
      5644      5643      5655      5657      5644      5643      5655      5658
      5645      5643      5655      5656      5645      5643      5655      5657
      5645      5643      5655      5658      5646      5649      5650      5651
      5646      5649      5650      5652      5647      5646      5649      5650
      5648      5646      5649      5650      5649      5650      5652      5653
      5649      5650      5652      5654      5649      5650      5652      5702
      5650      5652      5702      5703      5650      5652      5702      5704
      5650      5652      5702      5705      5651      5650      5652      5653
      5651      5650      5652      5654      5651      5650      5652      5702
      5652      5702      5705      5706      5652      5702      5705      5707
      5652      5702      5705      5708      5653      5652      5702      5703
      5653      5652      5702      5704      5653      5652      5702      5705
      5654      5652      5702      5703      5654      5652      5702      5704
      5654      5652      5702      5705      5655      5658      5661      5662
      5655      5658      5661      5663      5656      5655      5658      5659
      5656      5655      5658      5660      5656      5655      5658      5661
      5657      5655      5658      5659      5657      5655      5658      5660
      5657      5655      5658      5661      5658      5661      5663      5664
      5658      5661      5663      5665      5659      5658      5661      5662
      5659      5658      5661      5663      5660      5658      5661      5662
      5660      5658      5661      5663      5661      5663      5665      5666
      5661      5663      5665      5667      5661      5663      5665      5668
      5662      5661      5663      5664      5662      5661      5663      5665
      5663      5665      5668      5669      5663      5665      5668      5670
      5664      5663      5665      5666      5664      5663      5665      5667
      5664      5663      5665      5668      5665      5668      5670      5671
      5665      5668      5670      5672      5666      5665      5668      5669
      5666      5665      5668      5670      5667      5665      5668      5669
      5667      5665      5668      5670      5668      5670      5672      5673
      5668      5670      5672      5674      5668      5670      5672      5675
      5669      5668      5670      5671      5669      5668      5670      5672
      5670      5672      5675      5676      5670      5672      5675      5677
      5671      5670      5672      5673      5671      5670      5672      5674
      5671      5670      5672      5675      5672      5675      5677      5678
      5672      5675      5677      5679      5673      5672      5675      5676
      5673      5672      5675      5677      5674      5672      5675      5676
      5674      5672      5675      5677      5675      5677      5679      5680
      5675      5677      5679      5681      5675      5677      5679      5682
      5676      5675      5677      5678      5676      5675      5677      5679
      5677      5679      5682      5683      5677      5679      5682      5684
      5678      5677      5679      5680      5678      5677      5679      5681
      5678      5677      5679      5682      5679      5682      5684      5685
      5679      5682      5684      5686      5680      5679      5682      5683
      5680      5679      5682      5684      5681      5679      5682      5683
      5681      5679      5682      5684      5682      5684      5686      5687
      5682      5684      5686      5688      5682      5684      5686      5689
      5683      5682      5684      5685      5683      5682      5684      5686
      5684      5686      5689      5690      5684      5686      5689      5691
      5684      5686      5689      5692      5685      5684      5686      5687
      5685      5684      5686      5688      5685      5684      5686      5689
      5686      5689      5692      5693      5686      5689      5692      5694
      5686      5689      5692      5695      5687      5686      5689      5690
      5687      5686      5689      5691      5687      5686      5689      5692
      5688      5686      5689      5690      5688      5686      5689      5691
      5688      5686      5689      5692      5689      5692      5695      5696
      5689      5692      5695      5697      5689      5692      5695      5698
      5690      5689      5692      5693      5690      5689      5692      5694
      5690      5689      5692      5695      5691      5689      5692      5693
      5691      5689      5692      5694      5691      5689      5692      5695
      5692      5695      5698      5699      5692      5695      5698      5700
      5692      5695      5698      5701      5693      5692      5695      5696
      5693      5692      5695      5697      5693      5692      5695      5698
      5694      5692      5695      5696      5694      5692      5695      5697
      5694      5692      5695      5698      5696      5695      5698      5699
      5696      5695      5698      5700      5696      5695      5698      5701
      5697      5695      5698      5699      5697      5695      5698      5700
      5697      5695      5698      5701      5702      5705      5708      5709
      5702      5705      5708      5710      5702      5705      5708      5711
      5703      5702      5705      5706      5703      5702      5705      5707
      5703      5702      5705      5708      5704      5702      5705      5706
      5704      5702      5705      5707      5704      5702      5705      5708
      5705      5708      5711      5712      5705      5708      5711      5713
      5705      5708      5711      5714      5706      5705      5708      5709
      5706      5705      5708      5710      5706      5705      5708      5711
      5707      5705      5708      5709      5707      5705      5708      5710
      5707      5705      5708      5711      5708      5711      5714      5715
      5708      5711      5714      5716      5708      5711      5714      5717
      5709      5708      5711      5712      5709      5708      5711      5713
      5709      5708      5711      5714      5710      5708      5711      5712
      5710      5708      5711      5713      5710      5708      5711      5714
      5711      5714      5717      5718      5711      5714      5717      5719
      5711      5714      5717      5720      5712      5711      5714      5715
      5712      5711      5714      5716      5712      5711      5714      5717
      5713      5711      5714      5715      5713      5711      5714      5716
      5713      5711      5714      5717      5714      5717      5720      5721
      5714      5717      5720      5722      5714      5717      5720      5723
      5715      5714      5717      5718      5715      5714      5717      5719
      5715      5714      5717      5720      5716      5714      5717      5718
      5716      5714      5717      5719      5716      5714      5717      5720
      5717      5720      5723      5724      5717      5720      5723      5725
      5717      5720      5723      5726      5718      5717      5720      5721
      5718      5717      5720      5722      5718      5717      5720      5723
      5719      5717      5720      5721      5719      5717      5720      5722
      5719      5717      5720      5723      5720      5723      5726      5727
      5720      5723      5726      5728      5720      5723      5726      5729
      5721      5720      5723      5724      5721      5720      5723      5725
      5721      5720      5723      5726      5722      5720      5723      5724
      5722      5720      5723      5725      5722      5720      5723      5726
      5723      5726      5729      5730      5723      5726      5729      5731
      5723      5726      5729      5732      5724      5723      5726      5727
      5724      5723      5726      5728      5724      5723      5726      5729
      5725      5723      5726      5727      5725      5723      5726      5728
      5725      5723      5726      5729      5726      5729      5732      5733
      5726      5729      5732      5734      5726      5729      5732      5735
      5727      5726      5729      5730      5727      5726      5729      5731
      5727      5726      5729      5732      5728      5726      5729      5730
      5728      5726      5729      5731      5728      5726      5729      5732
      5729      5732      5735      5736      5729      5732      5735      5737
      5729      5732      5735      5738      5730      5729      5732      5733
      5730      5729      5732      5734      5730      5729      5732      5735
      5731      5729      5732      5733      5731      5729      5732      5734
      5731      5729      5732      5735      5732      5735      5738      5739
      5732      5735      5738      5740      5732      5735      5738      5741
      5733      5732      5735      5736      5733      5732      5735      5737
      5733      5732      5735      5738      5734      5732      5735      5736
      5734      5732      5735      5737      5734      5732      5735      5738
      5735      5738      5741      5742      5735      5738      5741      5743
      5735      5738      5741      5744      5736      5735      5738      5739
      5736      5735      5738      5740      5736      5735      5738      5741
      5737      5735      5738      5739      5737      5735      5738      5740
      5737      5735      5738      5741      5738      5741      5744      5745
      5738      5741      5744      5746      5738      5741      5744      5747
      5739      5738      5741      5742      5739      5738      5741      5743
      5739      5738      5741      5744      5740      5738      5741      5742
      5740      5738      5741      5743      5740      5738      5741      5744
      5741      5744      5747      5748      5741      5744      5747      5749
      5741      5744      5747      5750      5742      5741      5744      5745
      5742      5741      5744      5746      5742      5741      5744      5747
      5743      5741      5744      5745      5743      5741      5744      5746
      5743      5741      5744      5747      5745      5744      5747      5748
      5745      5744      5747      5749      5745      5744      5747      5750
      5746      5744      5747      5748      5746      5744      5747      5749
      5746      5744      5747      5750      5751      5755      5758      5759
      5751      5755      5758      5789      5751      5797      5794      5789
      5751      5797      5794      5795      5751      5797      5794      5796
      5752      5751      5753      5754      5752      5751      5755      5756
      5752      5751      5755      5757      5752      5751      5755      5758
      5752      5751      5797      5794      5752      5751      5797      5798
      5752      5751      5797      5799      5753      5751      5755      5756
      5753      5751      5755      5757      5753      5751      5755      5758
      5753      5751      5797      5794      5753      5751      5797      5798
      5753      5751      5797      5799      5754      5753      5751      5755
      5754      5753      5751      5797      5755      5751      5797      5794
      5755      5751      5797      5798      5755      5751      5797      5799
      5755      5758      5759      5760      5755      5758      5759      5761
      5755      5758      5789      5787      5755      5758      5789      5790
      5755      5758      5789      5794      5756      5755      5751      5797
      5756      5755      5758      5759      5756      5755      5758      5789
      5757      5755      5751      5797      5757      5755      5758      5759
      5757      5755      5758      5789      5758      5755      5751      5797
      5758      5759      5761      5762      5758      5759      5761      5763
      5758      5759      5761      5764      5758      5789      5787      5764
      5758      5789      5787      5784      5758      5789      5787      5788
      5758      5789      5790      5791      5758      5789      5790      5792
      5758      5789      5790      5793      5758      5789      5794      5795
      5758      5789      5794      5796      5758      5789      5794      5797
      5759      5758      5789      5787      5759      5758      5789      5790
      5759      5758      5789      5794      5759      5761      5764      5765
      5759      5761      5764      5766      5759      5761      5764      5787
      5760      5759      5758      5789      5760      5759      5761      5762
      5760      5759      5761      5763      5760      5759      5761      5764
      5761      5759      5758      5789      5761      5764      5766      5767
      5761      5764      5766      5768      5761      5764      5766      5776
      5761      5764      5787      5784      5761      5764      5787      5788
      5761      5764      5787      5789      5762      5761      5764      5765
      5762      5761      5764      5766      5762      5761      5764      5787
      5763      5761      5764      5765      5763      5761      5764      5766
      5763      5761      5764      5787      5764      5766      5768      5769
      5764      5766      5768      5770      5764      5766      5768      5771
      5764      5766      5776      5774      5764      5766      5776      5777
      5764      5766      5776      5781      5764      5787      5784      5781
      5764      5787      5784      5785      5764      5787      5784      5786
      5764      5787      5789      5790      5764      5787      5789      5794
      5765      5764      5766      5767      5765      5764      5766      5768
      5765      5764      5766      5776      5765      5764      5787      5784
      5765      5764      5787      5788      5765      5764      5787      5789
      5766      5764      5787      5784      5766      5764      5787      5788
      5766      5764      5787      5789      5766      5768      5771      5772
      5766      5768      5771      5773      5766      5768      5771      5774
      5766      5776      5774      5771      5766      5776      5774      5775
      5766      5776      5774      5800      5766      5776      5777      5778
      5766      5776      5777      5779      5766      5776      5777      5780
      5766      5776      5781      5782      5766      5776      5781      5783
      5766      5776      5781      5784      5767      5766      5764      5787
      5767      5766      5768      5769      5767      5766      5768      5770
      5767      5766      5768      5771      5767      5766      5776      5774
      5767      5766      5776      5777      5767      5766      5776      5781
      5768      5766      5764      5787      5768      5766      5776      5774
      5768      5766      5776      5777      5768      5766      5776      5781
      5768      5771      5774      5775      5768      5771      5774      5776
      5768      5771      5774      5800      5769      5768      5766      5776
      5769      5768      5771      5772      5769      5768      5771      5773
      5769      5768      5771      5774      5770      5768      5766      5776
      5770      5768      5771      5772      5770      5768      5771      5773
      5770      5768      5771      5774      5771      5768      5766      5776
      5771      5774      5776      5777      5771      5774      5776      5781
      5771      5774      5800      5801      5771      5774      5800      5802
      5771      5774      5800      5806      5772      5771      5774      5775
      5772      5771      5774      5776      5772      5771      5774      5800
      5773      5771      5774      5775      5773      5771      5774      5776
      5773      5771      5774      5800      5774      5776      5777      5778
      5774      5776      5777      5779      5774      5776      5777      5780
      5774      5776      5781      5782      5774      5776      5781      5783
      5774      5776      5781      5784      5774      5800      5802      5803
      5774      5800      5802      5804      5774      5800      5802      5805
      5774      5800      5806      5807      5774      5800      5806      5808
      5774      5800      5806      5809      5775      5774      5776      5777
      5775      5774      5776      5781      5775      5774      5800      5801
      5775      5774      5800      5802      5775      5774      5800      5806
      5776      5766      5764      5787      5776      5774      5800      5801
      5776      5774      5800      5802      5776      5774      5800      5806
      5776      5781      5784      5785      5776      5781      5784      5786
      5776      5781      5784      5787      5777      5776      5774      5800
      5777      5776      5781      5782      5777      5776      5781      5783
      5777      5776      5781      5784      5778      5777      5776      5781
      5779      5777      5776      5781      5780      5777      5776      5781
      5781      5776      5774      5800      5781      5784      5787      5788
      5781      5784      5787      5789      5782      5781      5784      5785
      5782      5781      5784      5786      5782      5781      5784      5787
      5783      5781      5784      5785      5783      5781      5784      5786
      5783      5781      5784      5787      5784      5787      5789      5790
      5784      5787      5789      5794      5785      5784      5787      5788
      5785      5784      5787      5789      5786      5784      5787      5788
      5786      5784      5787      5789      5787      5789      5790      5791
      5787      5789      5790      5792      5787      5789      5790      5793
      5787      5789      5794      5795      5787      5789      5794      5796
      5787      5789      5794      5797      5788      5787      5789      5790
      5788      5787      5789      5794      5789      5794      5797      5798
      5789      5794      5797      5799      5790      5789      5794      5795
      5790      5789      5794      5796      5790      5789      5794      5797
      5791      5790      5789      5794      5792      5790      5789      5794
      5793      5790      5789      5794      5795      5794      5797      5798
      5795      5794      5797      5799      5796      5794      5797      5798
      5796      5794      5797      5799      5800      5806      5809      5810
      5800      5806      5809      5811      5800      5806      5809      5812
      5801      5800      5802      5803      5801      5800      5802      5804
      5801      5800      5802      5805      5801      5800      5806      5807
      5801      5800      5806      5808      5801      5800      5806      5809
      5802      5800      5806      5807      5802      5800      5806      5808
      5802      5800      5806      5809      5803      5802      5800      5806
      5804      5802      5800      5806      5805      5802      5800      5806
      5806      5809      5812      5813      5806      5809      5812      5814
      5806      5809      5812      5815      5807      5806      5809      5810
      5807      5806      5809      5811      5807      5806      5809      5812
      5808      5806      5809      5810      5808      5806      5809      5811
      5808      5806      5809      5812      5809      5812      5815      5816
      5809      5812      5815      5817      5809      5812      5815      5821
      5810      5809      5812      5813      5810      5809      5812      5814
      5810      5809      5812      5815      5811      5809      5812      5813
      5811      5809      5812      5814      5811      5809      5812      5815
      5812      5815      5817      5818      5812      5815      5817      5819
      5812      5815      5817      5820      5812      5815      5821      5822
      5812      5815      5821      5823      5812      5815      5821      5824
      5813      5812      5815      5816      5813      5812      5815      5817
      5813      5812      5815      5821      5814      5812      5815      5816
      5814      5812      5815      5817      5814      5812      5815      5821
      5816      5815      5817      5818      5816      5815      5817      5819
      5816      5815      5817      5820      5816      5815      5821      5822
      5816      5815      5821      5823      5816      5815      5821      5824
      5817      5815      5821      5822      5817      5815      5821      5823
      5817      5815      5821      5824      5818      5817      5815      5821
      5819      5817      5815      5821      5820      5817      5815      5821
      5825      5838      5841      5842      5825      5838      5841      5843
      5825      5838      5841      5848      5826      5825      5830      5831
      5826      5825      5830      5832      5826      5825      5830      5833
      5826      5825      5834      5835      5826      5825      5834      5836
      5826      5825      5834      5837      5826      5825      5838      5839
      5826      5825      5838      5840      5826      5825      5838      5841
      5827      5826      5825      5830      5827      5826      5825      5834
      5827      5826      5825      5838      5828      5826      5825      5830
      5828      5826      5825      5834      5828      5826      5825      5838
      5829      5826      5825      5830      5829      5826      5825      5834
      5829      5826      5825      5838      5830      5825      5834      5835
      5830      5825      5834      5836      5830      5825      5834      5837
      5830      5825      5838      5839      5830      5825      5838      5840
      5830      5825      5838      5841      5831      5830      5825      5834
      5831      5830      5825      5838      5832      5830      5825      5834
      5832      5830      5825      5838      5833      5830      5825      5834
      5833      5830      5825      5838      5834      5825      5838      5839
      5834      5825      5838      5840      5834      5825      5838      5841
      5835      5834      5825      5838      5836      5834      5825      5838
      5837      5834      5825      5838      5838      5841      5848      5844
      5839      5838      5841      5842      5839      5838      5841      5843
      5839      5838      5841      5848      5840      5838      5841      5842
      5840      5838      5841      5843      5840      5838      5841      5848
      5841      5848      5844      5845      5841      5848      5844      5846
      5841      5848      5844      5847      5842      5841      5848      5844
      5843      5841      5848      5844      5844      5847      5849      5850
      5844      5847      5849      5851      5844      5847      5849      5854
      5845      5844      5847      5849      5846      5844      5847      5849
      5847      5849      5854      5852      5847      5849      5854      5855
      5847      5849      5854      5856      5848      5844      5847      5849
      5849      5854      5852      5853      5849      5854      5852      5904
      5849      5854      5856      5857      5849      5854      5856      5858
      5849      5854      5856      5860      5850      5849      5854      5852
      5850      5849      5854      5855      5850      5849      5854      5856
      5851      5849      5854      5852      5851      5849      5854      5855
      5851      5849      5854      5856      5852      5854      5856      5857
      5852      5854      5856      5858      5852      5854      5856      5860
      5852      5904      5906      5907      5852      5904      5906      5908
      5852      5904      5906      5909      5853      5852      5854      5855
      5853      5852      5854      5856      5853      5852      5904      5905
      5853      5852      5904      5906      5854      5852      5904      5905
      5854      5852      5904      5906      5854      5856      5858      5859
      5854      5856      5860      5861      5854      5856      5860      5862
      5855      5854      5852      5904      5855      5854      5856      5857
      5855      5854      5856      5858      5855      5854      5856      5860
      5856      5854      5852      5904      5856      5860      5862      5863
      5856      5860      5862      5864      5857      5856      5858      5859
      5857      5856      5860      5861      5857      5856      5860      5862
      5858      5856      5860      5861      5858      5856      5860      5862
      5859      5858      5856      5860      5860      5862      5864      5865
      5860      5862      5864      5866      5860      5862      5864      5867
      5861      5860      5862      5863      5861      5860      5862      5864
      5862      5864      5867      5868      5862      5864      5867      5869
      5862      5864      5867      5870      5863      5862      5864      5865
      5863      5862      5864      5866      5863      5862      5864      5867
      5864      5867      5870      5871      5864      5867      5870      5872
      5864      5867      5870      5873      5865      5864      5867      5868
      5865      5864      5867      5869      5865      5864      5867      5870
      5866      5864      5867      5868      5866      5864      5867      5869
      5866      5864      5867      5870      5867      5870      5873      5874
      5867      5870      5873      5875      5867      5870      5873      5876
      5868      5867      5870      5871      5868      5867      5870      5872
      5868      5867      5870      5873      5869      5867      5870      5871
      5869      5867      5870      5872      5869      5867      5870      5873
      5870      5873      5876      5877      5870      5873      5876      5878
      5870      5873      5876      5879      5871      5870      5873      5874
      5871      5870      5873      5875      5871      5870      5873      5876
      5872      5870      5873      5874      5872      5870      5873      5875
      5872      5870      5873      5876      5873      5876      5879      5880
      5873      5876      5879      5881      5873      5876      5879      5882
      5874      5873      5876      5877      5874      5873      5876      5878
      5874      5873      5876      5879      5875      5873      5876      5877
      5875      5873      5876      5878      5875      5873      5876      5879
      5876      5879      5882      5883      5876      5879      5882      5884
      5876      5879      5882      5885      5877      5876      5879      5880
      5877      5876      5879      5881      5877      5876      5879      5882
      5878      5876      5879      5880      5878      5876      5879      5881
      5878      5876      5879      5882      5879      5882      5885      5886
      5879      5882      5885      5887      5879      5882      5885      5888
      5880      5879      5882      5883      5880      5879      5882      5884
      5880      5879      5882      5885      5881      5879      5882      5883
      5881      5879      5882      5884      5881      5879      5882      5885
      5882      5885      5888      5889      5882      5885      5888      5890
      5882      5885      5888      5891      5883      5882      5885      5886
      5883      5882      5885      5887      5883      5882      5885      5888
      5884      5882      5885      5886      5884      5882      5885      5887
      5884      5882      5885      5888      5885      5888      5891      5892
      5885      5888      5891      5893      5885      5888      5891      5894
      5886      5885      5888      5889      5886      5885      5888      5890
      5886      5885      5888      5891      5887      5885      5888      5889
      5887      5885      5888      5890      5887      5885      5888      5891
      5888      5891      5894      5895      5888      5891      5894      5896
      5888      5891      5894      5897      5889      5888      5891      5892
      5889      5888      5891      5893      5889      5888      5891      5894
      5890      5888      5891      5892      5890      5888      5891      5893
      5890      5888      5891      5894      5891      5894      5897      5898
      5891      5894      5897      5899      5891      5894      5897      5900
      5892      5891      5894      5895      5892      5891      5894      5896
      5892      5891      5894      5897      5893      5891      5894      5895
      5893      5891      5894      5896      5893      5891      5894      5897
      5894      5897      5900      5901      5894      5897      5900      5902
      5894      5897      5900      5903      5895      5894      5897      5898
      5895      5894      5897      5899      5895      5894      5897      5900
      5896      5894      5897      5898      5896      5894      5897      5899
      5896      5894      5897      5900      5898      5897      5900      5901
      5898      5897      5900      5902      5898      5897      5900      5903
      5899      5897      5900      5901      5899      5897      5900      5902
      5899      5897      5900      5903      5904      5906      5909      5910
      5904      5906      5909      5911      5904      5906      5909      5912
      5905      5904      5906      5907      5905      5904      5906      5908
      5905      5904      5906      5909      5906      5909      5912      5913
      5906      5909      5912      5914      5906      5909      5912      5915
      5907      5906      5909      5910      5907      5906      5909      5911
      5907      5906      5909      5912      5908      5906      5909      5910
      5908      5906      5909      5911      5908      5906      5909      5912
      5909      5912      5915      5916      5909      5912      5915      5917
      5909      5912      5915      5918      5910      5909      5912      5913
      5910      5909      5912      5914      5910      5909      5912      5915
      5911      5909      5912      5913      5911      5909      5912      5914
      5911      5909      5912      5915      5912      5915      5918      5919
      5912      5915      5918      5920      5912      5915      5918      5921
      5913      5912      5915      5916      5913      5912      5915      5917
      5913      5912      5915      5918      5914      5912      5915      5916
      5914      5912      5915      5917      5914      5912      5915      5918
      5915      5918      5921      5922      5915      5918      5921      5923
      5915      5918      5921      5924      5916      5915      5918      5919
      5916      5915      5918      5920      5916      5915      5918      5921
      5917      5915      5918      5919      5917      5915      5918      5920
      5917      5915      5918      5921      5918      5921      5924      5925
      5918      5921      5924      5926      5918      5921      5924      5927
      5919      5918      5921      5922      5919      5918      5921      5923
      5919      5918      5921      5924      5920      5918      5921      5922
      5920      5918      5921      5923      5920      5918      5921      5924
      5921      5924      5927      5928      5921      5924      5927      5929
      5922      5921      5924      5925      5922      5921      5924      5926
      5922      5921      5924      5927      5923      5921      5924      5925
      5923      5921      5924      5926      5923      5921      5924      5927
      5924      5927      5929      5930      5924      5927      5929      5931
      5925      5924      5927      5928      5925      5924      5927      5929
      5926      5924      5927      5928      5926      5924      5927      5929
      5927      5929      5931      5932      5927      5929      5931      5933
      5927      5929      5931      5934      5928      5927      5929      5930
      5928      5927      5929      5931      5929      5931      5934      5935
      5929      5931      5934      5936      5929      5931      5934      5937
      5930      5929      5931      5932      5930      5929      5931      5933
      5930      5929      5931      5934      5931      5934      5937      5938
      5931      5934      5937      5939      5931      5934      5937      5940
      5932      5931      5934      5935      5932      5931      5934      5936
      5932      5931      5934      5937      5933      5931      5934      5935
      5933      5931      5934      5936      5933      5931      5934      5937
      5934      5937      5940      5941      5934      5937      5940      5942
      5934      5937      5940      5943      5935      5934      5937      5938
      5935      5934      5937      5939      5935      5934      5937      5940
      5936      5934      5937      5938      5936      5934      5937      5939
      5936      5934      5937      5940      5937      5940      5943      5944
      5937      5940      5943      5945      5937      5940      5943      5946
      5938      5937      5940      5941      5938      5937      5940      5942
      5938      5937      5940      5943      5939      5937      5940      5941
      5939      5937      5940      5942      5939      5937      5940      5943
      5940      5943      5946      5947      5940      5943      5946      5948
      5940      5943      5946      5949      5941      5940      5943      5944
      5941      5940      5943      5945      5941      5940      5943      5946
      5942      5940      5943      5944      5942      5940      5943      5945
      5942      5940      5943      5946      5943      5946      5949      5950
      5943      5946      5949      5951      5943      5946      5949      5952
      5944      5943      5946      5947      5944      5943      5946      5948
      5944      5943      5946      5949      5945      5943      5946      5947
      5945      5943      5946      5948      5945      5943      5946      5949
      5946      5949      5952      5953      5946      5949      5952      5954
      5946      5949      5952      5955      5947      5946      5949      5950
      5947      5946      5949      5951      5947      5946      5949      5952
      5948      5946      5949      5950      5948      5946      5949      5951
      5948      5946      5949      5952      5950      5949      5952      5953
      5950      5949      5952      5954      5950      5949      5952      5955
      5951      5949      5952      5953      5951      5949      5952      5954
      5951      5949      5952      5955      5956      5969      5972      5973
      5956      5969      5972      5974      5956      5969      5972      5979
      5957      5956      5961      5962      5957      5956      5961      5963
      5957      5956      5961      5964      5957      5956      5965      5966
      5957      5956      5965      5967      5957      5956      5965      5968
      5957      5956      5969      5970      5957      5956      5969      5971
      5957      5956      5969      5972      5958      5957      5956      5961
      5958      5957      5956      5965      5958      5957      5956      5969
      5959      5957      5956      5961      5959      5957      5956      5965
      5959      5957      5956      5969      5960      5957      5956      5961
      5960      5957      5956      5965      5960      5957      5956      5969
      5961      5956      5965      5966      5961      5956      5965      5967
      5961      5956      5965      5968      5961      5956      5969      5970
      5961      5956      5969      5971      5961      5956      5969      5972
      5962      5961      5956      5965      5962      5961      5956      5969
      5963      5961      5956      5965      5963      5961      5956      5969
      5964      5961      5956      5965      5964      5961      5956      5969
      5965      5956      5969      5970      5965      5956      5969      5971
      5965      5956      5969      5972      5966      5965      5956      5969
      5967      5965      5956      5969      5968      5965      5956      5969
      5969      5972      5979      5975      5970      5969      5972      5973
      5970      5969      5972      5974      5970      5969      5972      5979
      5971      5969      5972      5973      5971      5969      5972      5974
      5971      5969      5972      5979      5972      5979      5975      5976
      5972      5979      5975      5977      5972      5979      5975      5978
      5973      5972      5979      5975      5974      5972      5979      5975
      5975      5978      5980      5981      5975      5978      5980      5982
      5975      5978      5980      5985      5976      5975      5978      5980
      5977      5975      5978      5980      5978      5980      5985      5983
      5978      5980      5985      5986      5978      5980      5985      5987
      5979      5975      5978      5980      5980      5985      5983      5984
      5980      5985      5983      6035      5980      5985      5987      5988
      5980      5985      5987      5989      5980      5985      5987      5991
      5981      5980      5985      5983      5981      5980      5985      5986
      5981      5980      5985      5987      5982      5980      5985      5983
      5982      5980      5985      5986      5982      5980      5985      5987
      5983      5985      5987      5988      5983      5985      5987      5989
      5983      5985      5987      5991      5983      6035      6037      6038
      5983      6035      6037      6039      5983      6035      6037      6040
      5984      5983      5985      5986      5984      5983      5985      5987
      5984      5983      6035      6036      5984      5983      6035      6037
      5985      5983      6035      6036      5985      5983      6035      6037
      5985      5987      5989      5990      5985      5987      5991      5992
      5985      5987      5991      5993      5986      5985      5983      6035
      5986      5985      5987      5988      5986      5985      5987      5989
      5986      5985      5987      5991      5987      5985      5983      6035
      5987      5991      5993      5994      5987      5991      5993      5995
      5988      5987      5989      5990      5988      5987      5991      5992
      5988      5987      5991      5993      5989      5987      5991      5992
      5989      5987      5991      5993      5990      5989      5987      5991
      5991      5993      5995      5996      5991      5993      5995      5997
      5991      5993      5995      5998      5992      5991      5993      5994
      5992      5991      5993      5995      5993      5995      5998      5999
      5993      5995      5998      6000      5993      5995      5998      6001
      5994      5993      5995      5996      5994      5993      5995      5997
      5994      5993      5995      5998      5995      5998      6001      6002
      5995      5998      6001      6003      5995      5998      6001      6004
      5996      5995      5998      5999      5996      5995      5998      6000
      5996      5995      5998      6001      5997      5995      5998      5999
      5997      5995      5998      6000      5997      5995      5998      6001
      5998      6001      6004      6005      5998      6001      6004      6006
      5998      6001      6004      6007      5999      5998      6001      6002
      5999      5998      6001      6003      5999      5998      6001      6004
      6000      5998      6001      6002      6000      5998      6001      6003
      6000      5998      6001      6004      6001      6004      6007      6008
      6001      6004      6007      6009      6001      6004      6007      6010
      6002      6001      6004      6005      6002      6001      6004      6006
      6002      6001      6004      6007      6003      6001      6004      6005
      6003      6001      6004      6006      6003      6001      6004      6007
      6004      6007      6010      6011      6004      6007      6010      6012
      6004      6007      6010      6013      6005      6004      6007      6008
      6005      6004      6007      6009      6005      6004      6007      6010
      6006      6004      6007      6008      6006      6004      6007      6009
      6006      6004      6007      6010      6007      6010      6013      6014
      6007      6010      6013      6015      6007      6010      6013      6016
      6008      6007      6010      6011      6008      6007      6010      6012
      6008      6007      6010      6013      6009      6007      6010      6011
      6009      6007      6010      6012      6009      6007      6010      6013
      6010      6013      6016      6017      6010      6013      6016      6018
      6010      6013      6016      6019      6011      6010      6013      6014
      6011      6010      6013      6015      6011      6010      6013      6016
      6012      6010      6013      6014      6012      6010      6013      6015
      6012      6010      6013      6016      6013      6016      6019      6020
      6013      6016      6019      6021      6013      6016      6019      6022
      6014      6013      6016      6017      6014      6013      6016      6018
      6014      6013      6016      6019      6015      6013      6016      6017
      6015      6013      6016      6018      6015      6013      6016      6019
      6016      6019      6022      6023      6016      6019      6022      6024
      6016      6019      6022      6025      6017      6016      6019      6020
      6017      6016      6019      6021      6017      6016      6019      6022
      6018      6016      6019      6020      6018      6016      6019      6021
      6018      6016      6019      6022      6019      6022      6025      6026
      6019      6022      6025      6027      6019      6022      6025      6028
      6020      6019      6022      6023      6020      6019      6022      6024
      6020      6019      6022      6025      6021      6019      6022      6023
      6021      6019      6022      6024      6021      6019      6022      6025
      6022      6025      6028      6029      6022      6025      6028      6030
      6022      6025      6028      6031      6023      6022      6025      6026
      6023      6022      6025      6027      6023      6022      6025      6028
      6024      6022      6025      6026      6024      6022      6025      6027
      6024      6022      6025      6028      6025      6028      6031      6032
      6025      6028      6031      6033      6025      6028      6031      6034
      6026      6025      6028      6029      6026      6025      6028      6030
      6026      6025      6028      6031      6027      6025      6028      6029
      6027      6025      6028      6030      6027      6025      6028      6031
      6029      6028      6031      6032      6029      6028      6031      6033
      6029      6028      6031      6034      6030      6028      6031      6032
      6030      6028      6031      6033      6030      6028      6031      6034
      6035      6037      6040      6041      6035      6037      6040      6042
      6035      6037      6040      6043      6036      6035      6037      6038
      6036      6035      6037      6039      6036      6035      6037      6040
      6037      6040      6043      6044      6037      6040      6043      6045
      6037      6040      6043      6046      6038      6037      6040      6041
      6038      6037      6040      6042      6038      6037      6040      6043
      6039      6037      6040      6041      6039      6037      6040      6042
      6039      6037      6040      6043      6040      6043      6046      6047
      6040      6043      6046      6048      6040      6043      6046      6049
      6041      6040      6043      6044      6041      6040      6043      6045
      6041      6040      6043      6046      6042      6040      6043      6044
      6042      6040      6043      6045      6042      6040      6043      6046
      6043      6046      6049      6050      6043      6046      6049      6051
      6043      6046      6049      6052      6044      6043      6046      6047
      6044      6043      6046      6048      6044      6043      6046      6049
      6045      6043      6046      6047      6045      6043      6046      6048
      6045      6043      6046      6049      6046      6049      6052      6053
      6046      6049      6052      6054      6046      6049      6052      6055
      6047      6046      6049      6050      6047      6046      6049      6051
      6047      6046      6049      6052      6048      6046      6049      6050
      6048      6046      6049      6051      6048      6046      6049      6052
      6049      6052      6055      6056      6049      6052      6055      6057
      6049      6052      6055      6058      6050      6049      6052      6053
      6050      6049      6052      6054      6050      6049      6052      6055
      6051      6049      6052      6053      6051      6049      6052      6054
      6051      6049      6052      6055      6052      6055      6058      6059
      6052      6055      6058      6060      6053      6052      6055      6056
      6053      6052      6055      6057      6053      6052      6055      6058
      6054      6052      6055      6056      6054      6052      6055      6057
      6054      6052      6055      6058      6055      6058      6060      6061
      6055      6058      6060      6062      6056      6055      6058      6059
      6056      6055      6058      6060      6057      6055      6058      6059
      6057      6055      6058      6060      6058      6060      6062      6063
      6058      6060      6062      6064      6058      6060      6062      6065
      6059      6058      6060      6061      6059      6058      6060      6062
      6060      6062      6065      6066      6060      6062      6065      6067
      6060      6062      6065      6068      6061      6060      6062      6063
      6061      6060      6062      6064      6061      6060      6062      6065
      6062      6065      6068      6069      6062      6065      6068      6070
      6062      6065      6068      6071      6063      6062      6065      6066
      6063      6062      6065      6067      6063      6062      6065      6068
      6064      6062      6065      6066      6064      6062      6065      6067
      6064      6062      6065      6068      6065      6068      6071      6072
      6065      6068      6071      6073      6065      6068      6071      6074
      6066      6065      6068      6069      6066      6065      6068      6070
      6066      6065      6068      6071      6067      6065      6068      6069
      6067      6065      6068      6070      6067      6065      6068      6071
      6068      6071      6074      6075      6068      6071      6074      6076
      6068      6071      6074      6077      6069      6068      6071      6072
      6069      6068      6071      6073      6069      6068      6071      6074
      6070      6068      6071      6072      6070      6068      6071      6073
      6070      6068      6071      6074      6071      6074      6077      6078
      6071      6074      6077      6079      6071      6074      6077      6080
      6072      6071      6074      6075      6072      6071      6074      6076
      6072      6071      6074      6077      6073      6071      6074      6075
      6073      6071      6074      6076      6073      6071      6074      6077
      6074      6077      6080      6081      6074      6077      6080      6082
      6074      6077      6080      6083      6075      6074      6077      6078
      6075      6074      6077      6079      6075      6074      6077      6080
      6076      6074      6077      6078      6076      6074      6077      6079
      6076      6074      6077      6080      6077      6080      6083      6084
      6077      6080      6083      6085      6077      6080      6083      6086
      6078      6077      6080      6081      6078      6077      6080      6082
      6078      6077      6080      6083      6079      6077      6080      6081
      6079      6077      6080      6082      6079      6077      6080      6083
      6081      6080      6083      6084      6081      6080      6083      6085
      6081      6080      6083      6086      6082      6080      6083      6084
      6082      6080      6083      6085      6082      6080      6083      6086
      6087      6100      6103      6104      6087      6100      6103      6105
      6087      6100      6103      6110      6088      6087      6092      6093
      6088      6087      6092      6094      6088      6087      6092      6095
      6088      6087      6096      6097      6088      6087      6096      6098
      6088      6087      6096      6099      6088      6087      6100      6101
      6088      6087      6100      6102      6088      6087      6100      6103
      6089      6088      6087      6092      6089      6088      6087      6096
      6089      6088      6087      6100      6090      6088      6087      6092
      6090      6088      6087      6096      6090      6088      6087      6100
      6091      6088      6087      6092      6091      6088      6087      6096
      6091      6088      6087      6100      6092      6087      6096      6097
      6092      6087      6096      6098      6092      6087      6096      6099
      6092      6087      6100      6101      6092      6087      6100      6102
      6092      6087      6100      6103      6093      6092      6087      6096
      6093      6092      6087      6100      6094      6092      6087      6096
      6094      6092      6087      6100      6095      6092      6087      6096
      6095      6092      6087      6100      6096      6087      6100      6101
      6096      6087      6100      6102      6096      6087      6100      6103
      6097      6096      6087      6100      6098      6096      6087      6100
      6099      6096      6087      6100      6100      6103      6110      6106
      6101      6100      6103      6104      6101      6100      6103      6105
      6101      6100      6103      6110      6102      6100      6103      6104
      6102      6100      6103      6105      6102      6100      6103      6110
      6103      6110      6106      6107      6103      6110      6106      6108
      6103      6110      6106      6109      6104      6103      6110      6106
      6105      6103      6110      6106      6106      6109      6111      6112
      6106      6109      6111      6113      6106      6109      6111      6116
      6107      6106      6109      6111      6108      6106      6109      6111
      6109      6111      6116      6114      6109      6111      6116      6117
      6109      6111      6116      6118      6110      6106      6109      6111
      6111      6116      6114      6115      6111      6116      6114      6166
      6111      6116      6118      6119      6111      6116      6118      6120
      6111      6116      6118      6122      6112      6111      6116      6114
      6112      6111      6116      6117      6112      6111      6116      6118
      6113      6111      6116      6114      6113      6111      6116      6117
      6113      6111      6116      6118      6114      6116      6118      6119
      6114      6116      6118      6120      6114      6116      6118      6122
      6114      6166      6168      6169      6114      6166      6168      6170
      6114      6166      6168      6171      6115      6114      6116      6117
      6115      6114      6116      6118      6115      6114      6166      6167
      6115      6114      6166      6168      6116      6114      6166      6167
      6116      6114      6166      6168      6116      6118      6120      6121
      6116      6118      6122      6123      6116      6118      6122      6124
      6117      6116      6114      6166      6117      6116      6118      6119
      6117      6116      6118      6120      6117      6116      6118      6122
      6118      6116      6114      6166      6118      6122      6124      6125
      6118      6122      6124      6126      6119      6118      6120      6121
      6119      6118      6122      6123      6119      6118      6122      6124
      6120      6118      6122      6123      6120      6118      6122      6124
      6121      6120      6118      6122      6122      6124      6126      6127
      6122      6124      6126      6128      6122      6124      6126      6129
      6123      6122      6124      6125      6123      6122      6124      6126
      6124      6126      6129      6130      6124      6126      6129      6131
      6124      6126      6129      6132      6125      6124      6126      6127
      6125      6124      6126      6128      6125      6124      6126      6129
      6126      6129      6132      6133      6126      6129      6132      6134
      6126      6129      6132      6135      6127      6126      6129      6130
      6127      6126      6129      6131      6127      6126      6129      6132
      6128      6126      6129      6130      6128      6126      6129      6131
      6128      6126      6129      6132      6129      6132      6135      6136
      6129      6132      6135      6137      6129      6132      6135      6138
      6130      6129      6132      6133      6130      6129      6132      6134
      6130      6129      6132      6135      6131      6129      6132      6133
      6131      6129      6132      6134      6131      6129      6132      6135
      6132      6135      6138      6139      6132      6135      6138      6140
      6132      6135      6138      6141      6133      6132      6135      6136
      6133      6132      6135      6137      6133      6132      6135      6138
      6134      6132      6135      6136      6134      6132      6135      6137
      6134      6132      6135      6138      6135      6138      6141      6142
      6135      6138      6141      6143      6135      6138      6141      6144
      6136      6135      6138      6139      6136      6135      6138      6140
      6136      6135      6138      6141      6137      6135      6138      6139
      6137      6135      6138      6140      6137      6135      6138      6141
      6138      6141      6144      6145      6138      6141      6144      6146
      6138      6141      6144      6147      6139      6138      6141      6142
      6139      6138      6141      6143      6139      6138      6141      6144
      6140      6138      6141      6142      6140      6138      6141      6143
      6140      6138      6141      6144      6141      6144      6147      6148
      6141      6144      6147      6149      6141      6144      6147      6150
      6142      6141      6144      6145      6142      6141      6144      6146
      6142      6141      6144      6147      6143      6141      6144      6145
      6143      6141      6144      6146      6143      6141      6144      6147
      6144      6147      6150      6151      6144      6147      6150      6152
      6144      6147      6150      6153      6145      6144      6147      6148
      6145      6144      6147      6149      6145      6144      6147      6150
      6146      6144      6147      6148      6146      6144      6147      6149
      6146      6144      6147      6150      6147      6150      6153      6154
      6147      6150      6153      6155      6147      6150      6153      6156
      6148      6147      6150      6151      6148      6147      6150      6152
      6148      6147      6150      6153      6149      6147      6150      6151
      6149      6147      6150      6152      6149      6147      6150      6153
      6150      6153      6156      6157      6150      6153      6156      6158
      6150      6153      6156      6159      6151      6150      6153      6154
      6151      6150      6153      6155      6151      6150      6153      6156
      6152      6150      6153      6154      6152      6150      6153      6155
      6152      6150      6153      6156      6153      6156      6159      6160
      6153      6156      6159      6161      6153      6156      6159      6162
      6154      6153      6156      6157      6154      6153      6156      6158
      6154      6153      6156      6159      6155      6153      6156      6157
      6155      6153      6156      6158      6155      6153      6156      6159
      6156      6159      6162      6163      6156      6159      6162      6164
      6156      6159      6162      6165      6157      6156      6159      6160
      6157      6156      6159      6161      6157      6156      6159      6162
      6158      6156      6159      6160      6158      6156      6159      6161
      6158      6156      6159      6162      6160      6159      6162      6163
      6160      6159      6162      6164      6160      6159      6162      6165
      6161      6159      6162      6163      6161      6159      6162      6164
      6161      6159      6162      6165      6166      6168      6171      6172
      6166      6168      6171      6173      6166      6168      6171      6174
      6167      6166      6168      6169      6167      6166      6168      6170
      6167      6166      6168      6171      6168      6171      6174      6175
      6168      6171      6174      6176      6168      6171      6174      6177
      6169      6168      6171      6172      6169      6168      6171      6173
      6169      6168      6171      6174      6170      6168      6171      6172
      6170      6168      6171      6173      6170      6168      6171      6174
      6171      6174      6177      6178      6171      6174      6177      6179
      6171      6174      6177      6180      6172      6171      6174      6175
      6172      6171      6174      6176      6172      6171      6174      6177
      6173      6171      6174      6175      6173      6171      6174      6176
      6173      6171      6174      6177      6174      6177      6180      6181
      6174      6177      6180      6182      6174      6177      6180      6183
      6175      6174      6177      6178      6175      6174      6177      6179
      6175      6174      6177      6180      6176      6174      6177      6178
      6176      6174      6177      6179      6176      6174      6177      6180
      6177      6180      6183      6184      6177      6180      6183      6185
      6177      6180      6183      6186      6178      6177      6180      6181
      6178      6177      6180      6182      6178      6177      6180      6183
      6179      6177      6180      6181      6179      6177      6180      6182
      6179      6177      6180      6183      6180      6183      6186      6187
      6180      6183      6186      6188      6180      6183      6186      6189
      6181      6180      6183      6184      6181      6180      6183      6185
      6181      6180      6183      6186      6182      6180      6183      6184
      6182      6180      6183      6185      6182      6180      6183      6186
      6183      6186      6189      6190      6183      6186      6189      6191
      6184      6183      6186      6187      6184      6183      6186      6188
      6184      6183      6186      6189      6185      6183      6186      6187
      6185      6183      6186      6188      6185      6183      6186      6189
      6186      6189      6191      6192      6186      6189      6191      6193
      6187      6186      6189      6190      6187      6186      6189      6191
      6188      6186      6189      6190      6188      6186      6189      6191
      6189      6191      6193      6194      6189      6191      6193      6195
      6189      6191      6193      6196      6190      6189      6191      6192
      6190      6189      6191      6193      6191      6193      6196      6197
      6191      6193      6196      6198      6191      6193      6196      6199
      6192      6191      6193      6194      6192      6191      6193      6195
      6192      6191      6193      6196      6193      6196      6199      6200
      6193      6196      6199      6201      6193      6196      6199      6202
      6194      6193      6196      6197      6194      6193      6196      6198
      6194      6193      6196      6199      6195      6193      6196      6197
      6195      6193      6196      6198      6195      6193      6196      6199
      6196      6199      6202      6203      6196      6199      6202      6204
      6196      6199      6202      6205      6197      6196      6199      6200
      6197      6196      6199      6201      6197      6196      6199      6202
      6198      6196      6199      6200      6198      6196      6199      6201
      6198      6196      6199      6202      6199      6202      6205      6206
      6199      6202      6205      6207      6199      6202      6205      6208
      6200      6199      6202      6203      6200      6199      6202      6204
      6200      6199      6202      6205      6201      6199      6202      6203
      6201      6199      6202      6204      6201      6199      6202      6205
      6202      6205      6208      6209      6202      6205      6208      6210
      6202      6205      6208      6211      6203      6202      6205      6206
      6203      6202      6205      6207      6203      6202      6205      6208
      6204      6202      6205      6206      6204      6202      6205      6207
      6204      6202      6205      6208      6205      6208      6211      6212
      6205      6208      6211      6213      6205      6208      6211      6214
      6206      6205      6208      6209      6206      6205      6208      6210
      6206      6205      6208      6211      6207      6205      6208      6209
      6207      6205      6208      6210      6207      6205      6208      6211
      6208      6211      6214      6215      6208      6211      6214      6216
      6208      6211      6214      6217      6209      6208      6211      6212
      6209      6208      6211      6213      6209      6208      6211      6214
      6210      6208      6211      6212      6210      6208      6211      6213
      6210      6208      6211      6214      6212      6211      6214      6215
      6212      6211      6214      6216      6212      6211      6214      6217
      6213      6211      6214      6215      6213      6211      6214      6216
      6213      6211      6214      6217      6218      6231      6234      6235
      6218      6231      6234      6236      6218      6231      6234      6241
      6219      6218      6223      6224      6219      6218      6223      6225
      6219      6218      6223      6226      6219      6218      6227      6228
      6219      6218      6227      6229      6219      6218      6227      6230
      6219      6218      6231      6232      6219      6218      6231      6233
      6219      6218      6231      6234      6220      6219      6218      6223
      6220      6219      6218      6227      6220      6219      6218      6231
      6221      6219      6218      6223      6221      6219      6218      6227
      6221      6219      6218      6231      6222      6219      6218      6223
      6222      6219      6218      6227      6222      6219      6218      6231
      6223      6218      6227      6228      6223      6218      6227      6229
      6223      6218      6227      6230      6223      6218      6231      6232
      6223      6218      6231      6233      6223      6218      6231      6234
      6224      6223      6218      6227      6224      6223      6218      6231
      6225      6223      6218      6227      6225      6223      6218      6231
      6226      6223      6218      6227      6226      6223      6218      6231
      6227      6218      6231      6232      6227      6218      6231      6233
      6227      6218      6231      6234      6228      6227      6218      6231
      6229      6227      6218      6231      6230      6227      6218      6231
      6231      6234      6241      6237      6232      6231      6234      6235
      6232      6231      6234      6236      6232      6231      6234      6241
      6233      6231      6234      6235      6233      6231      6234      6236
      6233      6231      6234      6241      6234      6241      6237      6238
      6234      6241      6237      6239      6234      6241      6237      6240
      6235      6234      6241      6237      6236      6234      6241      6237
      6237      6240      6242      6243      6237      6240      6242      6244
      6237      6240      6242      6247      6238      6237      6240      6242
      6239      6237      6240      6242      6240      6242      6247      6245
      6240      6242      6247      6248      6240      6242      6247      6249
      6241      6237      6240      6242      6242      6247      6245      6246
      6242      6247      6245      6297      6242      6247      6249      6250
      6242      6247      6249      6251      6242      6247      6249      6253
      6243      6242      6247      6245      6243      6242      6247      6248
      6243      6242      6247      6249      6244      6242      6247      6245
      6244      6242      6247      6248      6244      6242      6247      6249
      6245      6247      6249      6250      6245      6247      6249      6251
      6245      6247      6249      6253      6245      6297      6299      6300
      6245      6297      6299      6301      6245      6297      6299      6302
      6246      6245      6247      6248      6246      6245      6247      6249
      6246      6245      6297      6298      6246      6245      6297      6299
      6247      6245      6297      6298      6247      6245      6297      6299
      6247      6249      6251      6252      6247      6249      6253      6254
      6247      6249      6253      6255      6248      6247      6245      6297
      6248      6247      6249      6250      6248      6247      6249      6251
      6248      6247      6249      6253      6249      6247      6245      6297
      6249      6253      6255      6256      6249      6253      6255      6257
      6250      6249      6251      6252      6250      6249      6253      6254
      6250      6249      6253      6255      6251      6249      6253      6254
      6251      6249      6253      6255      6252      6251      6249      6253
      6253      6255      6257      6258      6253      6255      6257      6259
      6253      6255      6257      6260      6254      6253      6255      6256
      6254      6253      6255      6257      6255      6257      6260      6261
      6255      6257      6260      6262      6255      6257      6260      6263
      6256      6255      6257      6258      6256      6255      6257      6259
      6256      6255      6257      6260      6257      6260      6263      6264
      6257      6260      6263      6265      6257      6260      6263      6266
      6258      6257      6260      6261      6258      6257      6260      6262
      6258      6257      6260      6263      6259      6257      6260      6261
      6259      6257      6260      6262      6259      6257      6260      6263
      6260      6263      6266      6267      6260      6263      6266      6268
      6260      6263      6266      6269      6261      6260      6263      6264
      6261      6260      6263      6265      6261      6260      6263      6266
      6262      6260      6263      6264      6262      6260      6263      6265
      6262      6260      6263      6266      6263      6266      6269      6270
      6263      6266      6269      6271      6263      6266      6269      6272
      6264      6263      6266      6267      6264      6263      6266      6268
      6264      6263      6266      6269      6265      6263      6266      6267
      6265      6263      6266      6268      6265      6263      6266      6269
      6266      6269      6272      6273      6266      6269      6272      6274
      6266      6269      6272      6275      6267      6266      6269      6270
      6267      6266      6269      6271      6267      6266      6269      6272
      6268      6266      6269      6270      6268      6266      6269      6271
      6268      6266      6269      6272      6269      6272      6275      6276
      6269      6272      6275      6277      6269      6272      6275      6278
      6270      6269      6272      6273      6270      6269      6272      6274
      6270      6269      6272      6275      6271      6269      6272      6273
      6271      6269      6272      6274      6271      6269      6272      6275
      6272      6275      6278      6279      6272      6275      6278      6280
      6272      6275      6278      6281      6273      6272      6275      6276
      6273      6272      6275      6277      6273      6272      6275      6278
      6274      6272      6275      6276      6274      6272      6275      6277
      6274      6272      6275      6278      6275      6278      6281      6282
      6275      6278      6281      6283      6275      6278      6281      6284
      6276      6275      6278      6279      6276      6275      6278      6280
      6276      6275      6278      6281      6277      6275      6278      6279
      6277      6275      6278      6280      6277      6275      6278      6281
      6278      6281      6284      6285      6278      6281      6284      6286
      6278      6281      6284      6287      6279      6278      6281      6282
      6279      6278      6281      6283      6279      6278      6281      6284
      6280      6278      6281      6282      6280      6278      6281      6283
      6280      6278      6281      6284      6281      6284      6287      6288
      6281      6284      6287      6289      6281      6284      6287      6290
      6282      6281      6284      6285      6282      6281      6284      6286
      6282      6281      6284      6287      6283      6281      6284      6285
      6283      6281      6284      6286      6283      6281      6284      6287
      6284      6287      6290      6291      6284      6287      6290      6292
      6284      6287      6290      6293      6285      6284      6287      6288
      6285      6284      6287      6289      6285      6284      6287      6290
      6286      6284      6287      6288      6286      6284      6287      6289
      6286      6284      6287      6290      6287      6290      6293      6294
      6287      6290      6293      6295      6287      6290      6293      6296
      6288      6287      6290      6291      6288      6287      6290      6292
      6288      6287      6290      6293      6289      6287      6290      6291
      6289      6287      6290      6292      6289      6287      6290      6293
      6291      6290      6293      6294      6291      6290      6293      6295
      6291      6290      6293      6296      6292      6290      6293      6294
      6292      6290      6293      6295      6292      6290      6293      6296
      6297      6299      6302      6303      6297      6299      6302      6304
      6297      6299      6302      6305      6298      6297      6299      6300
      6298      6297      6299      6301      6298      6297      6299      6302
      6299      6302      6305      6306      6299      6302      6305      6307
      6299      6302      6305      6308      6300      6299      6302      6303
      6300      6299      6302      6304      6300      6299      6302      6305
      6301      6299      6302      6303      6301      6299      6302      6304
      6301      6299      6302      6305      6302      6305      6308      6309
      6302      6305      6308      6310      6302      6305      6308      6311
      6303      6302      6305      6306      6303      6302      6305      6307
      6303      6302      6305      6308      6304      6302      6305      6306
      6304      6302      6305      6307      6304      6302      6305      6308
      6305      6308      6311      6312      6305      6308      6311      6313
      6305      6308      6311      6314      6306      6305      6308      6309
      6306      6305      6308      6310      6306      6305      6308      6311
      6307      6305      6308      6309      6307      6305      6308      6310
      6307      6305      6308      6311      6308      6311      6314      6315
      6308      6311      6314      6316      6308      6311      6314      6317
      6309      6308      6311      6312      6309      6308      6311      6313
      6309      6308      6311      6314      6310      6308      6311      6312
      6310      6308      6311      6313      6310      6308      6311      6314
      6311      6314      6317      6318      6311      6314      6317      6319
      6311      6314      6317      6320      6312      6311      6314      6315
      6312      6311      6314      6316      6312      6311      6314      6317
      6313      6311      6314      6315      6313      6311      6314      6316
      6313      6311      6314      6317      6314      6317      6320      6321
      6314      6317      6320      6322      6315      6314      6317      6318
      6315      6314      6317      6319      6315      6314      6317      6320
      6316      6314      6317      6318      6316      6314      6317      6319
      6316      6314      6317      6320      6317      6320      6322      6323
      6317      6320      6322      6324      6318      6317      6320      6321
      6318      6317      6320      6322      6319      6317      6320      6321
      6319      6317      6320      6322      6320      6322      6324      6325
      6320      6322      6324      6326      6320      6322      6324      6327
      6321      6320      6322      6323      6321      6320      6322      6324
      6322      6324      6327      6328      6322      6324      6327      6329
      6322      6324      6327      6330      6323      6322      6324      6325
      6323      6322      6324      6326      6323      6322      6324      6327
      6324      6327      6330      6331      6324      6327      6330      6332
      6324      6327      6330      6333      6325      6324      6327      6328
      6325      6324      6327      6329      6325      6324      6327      6330
      6326      6324      6327      6328      6326      6324      6327      6329
      6326      6324      6327      6330      6327      6330      6333      6334
      6327      6330      6333      6335      6327      6330      6333      6336
      6328      6327      6330      6331      6328      6327      6330      6332
      6328      6327      6330      6333      6329      6327      6330      6331
      6329      6327      6330      6332      6329      6327      6330      6333
      6330      6333      6336      6337      6330      6333      6336      6338
      6330      6333      6336      6339      6331      6330      6333      6334
      6331      6330      6333      6335      6331      6330      6333      6336
      6332      6330      6333      6334      6332      6330      6333      6335
      6332      6330      6333      6336      6333      6336      6339      6340
      6333      6336      6339      6341      6333      6336      6339      6342
      6334      6333      6336      6337      6334      6333      6336      6338
      6334      6333      6336      6339      6335      6333      6336      6337
      6335      6333      6336      6338      6335      6333      6336      6339
      6336      6339      6342      6343      6336      6339      6342      6344
      6336      6339      6342      6345      6337      6336      6339      6340
      6337      6336      6339      6341      6337      6336      6339      6342
      6338      6336      6339      6340      6338      6336      6339      6341
      6338      6336      6339      6342      6339      6342      6345      6346
      6339      6342      6345      6347      6339      6342      6345      6348
      6340      6339      6342      6343      6340      6339      6342      6344
      6340      6339      6342      6345      6341      6339      6342      6343
      6341      6339      6342      6344      6341      6339      6342      6345
      6343      6342      6345      6346      6343      6342      6345      6347
      6343      6342      6345      6348      6344      6342      6345      6346
      6344      6342      6345      6347      6344      6342      6345      6348
      6349      6362      6365      6366      6349      6362      6365      6367
      6349      6362      6365      6371      6350      6349      6354      6355
      6350      6349      6354      6356      6350      6349      6354      6357
      6350      6349      6358      6359      6350      6349      6358      6360
      6350      6349      6358      6361      6350      6349      6362      6363
      6350      6349      6362      6364      6350      6349      6362      6365
      6351      6350      6349      6354      6351      6350      6349      6358
      6351      6350      6349      6362      6352      6350      6349      6354
      6352      6350      6349      6358      6352      6350      6349      6362
      6353      6350      6349      6354      6353      6350      6349      6358
      6353      6350      6349      6362      6354      6349      6358      6359
      6354      6349      6358      6360      6354      6349      6358      6361
      6354      6349      6362      6363      6354      6349      6362      6364
      6354      6349      6362      6365      6355      6354      6349      6358
      6355      6354      6349      6362      6356      6354      6349      6358
      6356      6354      6349      6362      6357      6354      6349      6358
      6357      6354      6349      6362      6358      6349      6362      6363
      6358      6349      6362      6364      6358      6349      6362      6365
      6359      6358      6349      6362      6360      6358      6349      6362
      6361      6358      6349      6362      6362      6365      6371      6368
      6363      6362      6365      6366      6363      6362      6365      6367
      6363      6362      6365      6371      6364      6362      6365      6366
      6364      6362      6365      6367      6364      6362      6365      6371
      6365      6371      6368      6369      6365      6371      6368      6370
      6365      6371      6368      6372      6366      6365      6371      6368
      6367      6365      6371      6368      6368      6372      6373      6374
      6368      6372      6373      6375      6368      6372      6373      6376
      6369      6368      6372      6373      6370      6368      6372      6373
      6371      6368      6372      6373      6372      6373      6376      6377
      6372      6373      6376      6378      6372      6373      6376      6384
      6373      6376      6378      6379      6373      6376      6384      6385
      6373      6376      6384      6386      6373      6376      6384      6387
      6374      6373      6376      6377      6374      6373      6376      6378
      6374      6373      6376      6384      6375      6373      6376      6377
      6375      6373      6376      6378      6375      6373      6376      6384
      6376      6378      6379      6380      6376      6378      6379      6381
      6376      6384      6387      6388      6377      6376      6378      6379
      6377      6376      6384      6385      6377      6376      6384      6386
      6377      6376      6384      6387      6378      6376      6384      6385
      6378      6376      6384      6386      6378      6376      6384      6387
      6378      6379      6381      6382      6378      6379      6381      6383
      6378      6379      6381      6393      6379      6378      6376      6384
      6379      6381      6393      6394      6379      6381      6393      6395
      6379      6381      6393      6396      6380      6379      6381      6382
      6380      6379      6381      6383      6380      6379      6381      6393
      6381      6393      6396      6397      6381      6393      6396      6398
      6381      6393      6396      6399      6382      6381      6393      6394
      6382      6381      6393      6395      6382      6381      6393      6396
      6383      6381      6393      6394      6383      6381      6393      6395
      6383      6381      6393      6396      6384      6387      6388      6389
      6384      6387      6388      6390      6385      6384      6387      6388
      6386      6384      6387      6388      6387      6388      6390      6391
      6387      6388      6390      6392      6387      6388      6390      6438
      6388      6390      6438      6439      6388      6390      6438      6440
      6388      6390      6438      6441      6389      6388      6390      6391
      6389      6388      6390      6392      6389      6388      6390      6438
      6390      6438      6441      6442      6390      6438      6441      6443
      6390      6438      6441      6444      6391      6390      6438      6439
      6391      6390      6438      6440      6391      6390      6438      6441
      6392      6390      6438      6439      6392      6390      6438      6440
      6392      6390      6438      6441      6393      6396      6399      6400
      6393      6396      6399      6401      6393      6396      6399      6402
      6394      6393      6396      6397      6394      6393      6396      6398
      6394      6393      6396      6399      6395      6393      6396      6397
      6395      6393      6396      6398      6395      6393      6396      6399
      6396      6399      6402      6403      6396      6399      6402      6404
      6396      6399      6402      6405      6397      6396      6399      6400
      6397      6396      6399      6401      6397      6396      6399      6402
      6398      6396      6399      6400      6398      6396      6399      6401
      6398      6396      6399      6402      6399      6402      6405      6406
      6399      6402      6405      6407      6399      6402      6405      6408
      6400      6399      6402      6403      6400      6399      6402      6404
      6400      6399      6402      6405      6401      6399      6402      6403
      6401      6399      6402      6404      6401      6399      6402      6405
      6402      6405      6408      6409      6402      6405      6408      6410
      6402      6405      6408      6411      6403      6402      6405      6406
      6403      6402      6405      6407      6403      6402      6405      6408
      6404      6402      6405      6406      6404      6402      6405      6407
      6404      6402      6405      6408      6405      6408      6411      6412
      6405      6408      6411      6413      6406      6405      6408      6409
      6406      6405      6408      6410      6406      6405      6408      6411
      6407      6405      6408      6409      6407      6405      6408      6410
      6407      6405      6408      6411      6408      6411      6413      6414
      6408      6411      6413      6415      6409      6408      6411      6412
      6409      6408      6411      6413      6410      6408      6411      6412
      6410      6408      6411      6413      6411      6413      6415      6416
      6411      6413      6415      6417      6411      6413      6415      6418
      6412      6411      6413      6414      6412      6411      6413      6415
      6413      6415      6418      6419      6413      6415      6418      6420
      6414      6413      6415      6416      6414      6413      6415      6417
      6414      6413      6415      6418      6415      6418      6420      6421
      6415      6418      6420      6422      6416      6415      6418      6419
      6416      6415      6418      6420      6417      6415      6418      6419
      6417      6415      6418      6420      6418      6420      6422      6423
      6418      6420      6422      6424      6418      6420      6422      6425
      6419      6418      6420      6421      6419      6418      6420      6422
      6420      6422      6425      6426      6420      6422      6425      6427
      6420      6422      6425      6428      6421      6420      6422      6423
      6421      6420      6422      6424      6421      6420      6422      6425
      6422      6425      6428      6429      6422      6425      6428      6430
      6422      6425      6428      6431      6423      6422      6425      6426
      6423      6422      6425      6427      6423      6422      6425      6428
      6424      6422      6425      6426      6424      6422      6425      6427
      6424      6422      6425      6428      6425      6428      6431      6432
      6425      6428      6431      6433      6425      6428      6431      6434
      6426      6425      6428      6429      6426      6425      6428      6430
      6426      6425      6428      6431      6427      6425      6428      6429
      6427      6425      6428      6430      6427      6425      6428      6431
      6428      6431      6434      6435      6428      6431      6434      6436
      6428      6431      6434      6437      6429      6428      6431      6432
      6429      6428      6431      6433      6429      6428      6431      6434
      6430      6428      6431      6432      6430      6428      6431      6433
      6430      6428      6431      6434      6432      6431      6434      6435
      6432      6431      6434      6436      6432      6431      6434      6437
      6433      6431      6434      6435      6433      6431      6434      6436
      6433      6431      6434      6437      6438      6441      6444      6445
      6438      6441      6444      6446      6438      6441      6444      6447
      6439      6438      6441      6442      6439      6438      6441      6443
      6439      6438      6441      6444      6440      6438      6441      6442
      6440      6438      6441      6443      6440      6438      6441      6444
      6441      6444      6447      6448      6441      6444      6447      6449
      6441      6444      6447      6450      6442      6441      6444      6445
      6442      6441      6444      6446      6442      6441      6444      6447
      6443      6441      6444      6445      6443      6441      6444      6446
      6443      6441      6444      6447      6444      6447      6450      6451
      6444      6447      6450      6452      6444      6447      6450      6453
      6445      6444      6447      6448      6445      6444      6447      6449
      6445      6444      6447      6450      6446      6444      6447      6448
      6446      6444      6447      6449      6446      6444      6447      6450
      6447      6450      6453      6454      6447      6450      6453      6455
      6447      6450      6453      6456      6448      6447      6450      6451
      6448      6447      6450      6452      6448      6447      6450      6453
      6449      6447      6450      6451      6449      6447      6450      6452
      6449      6447      6450      6453      6450      6453      6456      6457
      6450      6453      6456      6458      6450      6453      6456      6459
      6451      6450      6453      6454      6451      6450      6453      6455
      6451      6450      6453      6456      6452      6450      6453      6454
      6452      6450      6453      6455      6452      6450      6453      6456
      6453      6456      6459      6460      6453      6456      6459      6461
      6453      6456      6459      6462      6454      6453      6456      6457
      6454      6453      6456      6458      6454      6453      6456      6459
      6455      6453      6456      6457      6455      6453      6456      6458
      6455      6453      6456      6459      6456      6459      6462      6463
      6456      6459      6462      6464      6456      6459      6462      6465
      6457      6456      6459      6460      6457      6456      6459      6461
      6457      6456      6459      6462      6458      6456      6459      6460
      6458      6456      6459      6461      6458      6456      6459      6462
      6459      6462      6465      6466      6459      6462      6465      6467
      6459      6462      6465      6468      6460      6459      6462      6463
      6460      6459      6462      6464      6460      6459      6462      6465
      6461      6459      6462      6463      6461      6459      6462      6464
      6461      6459      6462      6465      6462      6465      6468      6469
      6462      6465      6468      6470      6462      6465      6468      6471
      6463      6462      6465      6466      6463      6462      6465      6467
      6463      6462      6465      6468      6464      6462      6465      6466
      6464      6462      6465      6467      6464      6462      6465      6468
      6465      6468      6471      6472      6465      6468      6471      6473
      6465      6468      6471      6474      6466      6465      6468      6469
      6466      6465      6468      6470      6466      6465      6468      6471
      6467      6465      6468      6469      6467      6465      6468      6470
      6467      6465      6468      6471      6468      6471      6474      6475
      6468      6471      6474      6476      6468      6471      6474      6477
      6469      6468      6471      6472      6469      6468      6471      6473
      6469      6468      6471      6474      6470      6468      6471      6472
      6470      6468      6471      6473      6470      6468      6471      6474
      6471      6474      6477      6478      6471      6474      6477      6479
      6471      6474      6477      6480      6472      6471      6474      6475
      6472      6471      6474      6476      6472      6471      6474      6477
      6473      6471      6474      6475      6473      6471      6474      6476
      6473      6471      6474      6477      6474      6477      6480      6481
      6474      6477      6480      6482      6474      6477      6480      6483
      6475      6474      6477      6478      6475      6474      6477      6479
      6475      6474      6477      6480      6476      6474      6477      6478
      6476      6474      6477      6479      6476      6474      6477      6480
      6477      6480      6483      6484      6477      6480      6483      6485
      6477      6480      6483      6486      6478      6477      6480      6481
      6478      6477      6480      6482      6478      6477      6480      6483
      6479      6477      6480      6481      6479      6477      6480      6482
      6479      6477      6480      6483      6481      6480      6483      6484
      6481      6480      6483      6485      6481      6480      6483      6486
      6482      6480      6483      6484      6482      6480      6483      6485
      6482      6480      6483      6486      6487      6500      6503      6504
      6487      6500      6503      6505      6487      6500      6503      6509
      6488      6487      6492      6493      6488      6487      6492      6494
      6488      6487      6492      6495      6488      6487      6496      6497
      6488      6487      6496      6498      6488      6487      6496      6499
      6488      6487      6500      6501      6488      6487      6500      6502
      6488      6487      6500      6503      6489      6488      6487      6492
      6489      6488      6487      6496      6489      6488      6487      6500
      6490      6488      6487      6492      6490      6488      6487      6496
      6490      6488      6487      6500      6491      6488      6487      6492
      6491      6488      6487      6496      6491      6488      6487      6500
      6492      6487      6496      6497      6492      6487      6496      6498
      6492      6487      6496      6499      6492      6487      6500      6501
      6492      6487      6500      6502      6492      6487      6500      6503
      6493      6492      6487      6496      6493      6492      6487      6500
      6494      6492      6487      6496      6494      6492      6487      6500
      6495      6492      6487      6496      6495      6492      6487      6500
      6496      6487      6500      6501      6496      6487      6500      6502
      6496      6487      6500      6503      6497      6496      6487      6500
      6498      6496      6487      6500      6499      6496      6487      6500
      6500      6503      6509      6506      6501      6500      6503      6504
      6501      6500      6503      6505      6501      6500      6503      6509
      6502      6500      6503      6504      6502      6500      6503      6505
      6502      6500      6503      6509      6503      6509      6506      6507
      6503      6509      6506      6508      6503      6509      6506      6510
      6504      6503      6509      6506      6505      6503      6509      6506
      6506      6510      6511      6512      6506      6510      6511      6513
      6506      6510      6511      6514      6507      6506      6510      6511
      6508      6506      6510      6511      6509      6506      6510      6511
      6510      6511      6514      6515      6510      6511      6514      6516
      6510      6511      6514      6522      6511      6514      6516      6517
      6511      6514      6522      6523      6511      6514      6522      6524
      6511      6514      6522      6525      6512      6511      6514      6515
      6512      6511      6514      6516      6512      6511      6514      6522
      6513      6511      6514      6515      6513      6511      6514      6516
      6513      6511      6514      6522      6514      6516      6517      6518
      6514      6516      6517      6519      6514      6522      6525      6526
      6515      6514      6516      6517      6515      6514      6522      6523
      6515      6514      6522      6524      6515      6514      6522      6525
      6516      6514      6522      6523      6516      6514      6522      6524
      6516      6514      6522      6525      6516      6517      6519      6520
      6516      6517      6519      6521      6516      6517      6519      6531
      6517      6516      6514      6522      6517      6519      6531      6532
      6517      6519      6531      6533      6517      6519      6531      6534
      6518      6517      6519      6520      6518      6517      6519      6521
      6518      6517      6519      6531      6519      6531      6534      6535
      6519      6531      6534      6536      6519      6531      6534      6537
      6520      6519      6531      6532      6520      6519      6531      6533
      6520      6519      6531      6534      6521      6519      6531      6532
      6521      6519      6531      6533      6521      6519      6531      6534
      6522      6525      6526      6527      6522      6525      6526      6528
      6523      6522      6525      6526      6524      6522      6525      6526
      6525      6526      6528      6529      6525      6526      6528      6530
      6525      6526      6528      6576      6526      6528      6576      6577
      6526      6528      6576      6578      6526      6528      6576      6579
      6527      6526      6528      6529      6527      6526      6528      6530
      6527      6526      6528      6576      6528      6576      6579      6580
      6528      6576      6579      6581      6528      6576      6579      6582
      6529      6528      6576      6577      6529      6528      6576      6578
      6529      6528      6576      6579      6530      6528      6576      6577
      6530      6528      6576      6578      6530      6528      6576      6579
      6531      6534      6537      6538      6531      6534      6537      6539
      6531      6534      6537      6540      6532      6531      6534      6535
      6532      6531      6534      6536      6532      6531      6534      6537
      6533      6531      6534      6535      6533      6531      6534      6536
      6533      6531      6534      6537      6534      6537      6540      6541
      6534      6537      6540      6542      6534      6537      6540      6543
      6535      6534      6537      6538      6535      6534      6537      6539
      6535      6534      6537      6540      6536      6534      6537      6538
      6536      6534      6537      6539      6536      6534      6537      6540
      6537      6540      6543      6544      6537      6540      6543      6545
      6537      6540      6543      6546      6538      6537      6540      6541
      6538      6537      6540      6542      6538      6537      6540      6543
      6539      6537      6540      6541      6539      6537      6540      6542
      6539      6537      6540      6543      6540      6543      6546      6547
      6540      6543      6546      6548      6540      6543      6546      6549
      6541      6540      6543      6544      6541      6540      6543      6545
      6541      6540      6543      6546      6542      6540      6543      6544
      6542      6540      6543      6545      6542      6540      6543      6546
      6543      6546      6549      6550      6543      6546      6549      6551
      6544      6543      6546      6547      6544      6543      6546      6548
      6544      6543      6546      6549      6545      6543      6546      6547
      6545      6543      6546      6548      6545      6543      6546      6549
      6546      6549      6551      6552      6546      6549      6551      6553
      6547      6546      6549      6550      6547      6546      6549      6551
      6548      6546      6549      6550      6548      6546      6549      6551
      6549      6551      6553      6554      6549      6551      6553      6555
      6549      6551      6553      6556      6550      6549      6551      6552
      6550      6549      6551      6553      6551      6553      6556      6557
      6551      6553      6556      6558      6552      6551      6553      6554
      6552      6551      6553      6555      6552      6551      6553      6556
      6553      6556      6558      6559      6553      6556      6558      6560
      6554      6553      6556      6557      6554      6553      6556      6558
      6555      6553      6556      6557      6555      6553      6556      6558
      6556      6558      6560      6561      6556      6558      6560      6562
      6556      6558      6560      6563      6557      6556      6558      6559
      6557      6556      6558      6560      6558      6560      6563      6564
      6558      6560      6563      6565      6558      6560      6563      6566
      6559      6558      6560      6561      6559      6558      6560      6562
      6559      6558      6560      6563      6560      6563      6566      6567
      6560      6563      6566      6568      6560      6563      6566      6569
      6561      6560      6563      6564      6561      6560      6563      6565
      6561      6560      6563      6566      6562      6560      6563      6564
      6562      6560      6563      6565      6562      6560      6563      6566
      6563      6566      6569      6570      6563      6566      6569      6571
      6563      6566      6569      6572      6564      6563      6566      6567
      6564      6563      6566      6568      6564      6563      6566      6569
      6565      6563      6566      6567      6565      6563      6566      6568
      6565      6563      6566      6569      6566      6569      6572      6573
      6566      6569      6572      6574      6566      6569      6572      6575
      6567      6566      6569      6570      6567      6566      6569      6571
      6567      6566      6569      6572      6568      6566      6569      6570
      6568      6566      6569      6571      6568      6566      6569      6572
      6570      6569      6572      6573      6570      6569      6572      6574
      6570      6569      6572      6575      6571      6569      6572      6573
      6571      6569      6572      6574      6571      6569      6572      6575
      6576      6579      6582      6583      6576      6579      6582      6584
      6576      6579      6582      6585      6577      6576      6579      6580
      6577      6576      6579      6581      6577      6576      6579      6582
      6578      6576      6579      6580      6578      6576      6579      6581
      6578      6576      6579      6582      6579      6582      6585      6586
      6579      6582      6585      6587      6579      6582      6585      6588
      6580      6579      6582      6583      6580      6579      6582      6584
      6580      6579      6582      6585      6581      6579      6582      6583
      6581      6579      6582      6584      6581      6579      6582      6585
      6582      6585      6588      6589      6582      6585      6588      6590
      6582      6585      6588      6591      6583      6582      6585      6586
      6583      6582      6585      6587      6583      6582      6585      6588
      6584      6582      6585      6586      6584      6582      6585      6587
      6584      6582      6585      6588      6585      6588      6591      6592
      6585      6588      6591      6593      6585      6588      6591      6594
      6586      6585      6588      6589      6586      6585      6588      6590
      6586      6585      6588      6591      6587      6585      6588      6589
      6587      6585      6588      6590      6587      6585      6588      6591
      6588      6591      6594      6595      6588      6591      6594      6596
      6588      6591      6594      6597      6589      6588      6591      6592
      6589      6588      6591      6593      6589      6588      6591      6594
      6590      6588      6591      6592      6590      6588      6591      6593
      6590      6588      6591      6594      6591      6594      6597      6598
      6591      6594      6597      6599      6591      6594      6597      6600
      6592      6591      6594      6595      6592      6591      6594      6596
      6592      6591      6594      6597      6593      6591      6594      6595
      6593      6591      6594      6596      6593      6591      6594      6597
      6594      6597      6600      6601      6594      6597      6600      6602
      6594      6597      6600      6603      6595      6594      6597      6598
      6595      6594      6597      6599      6595      6594      6597      6600
      6596      6594      6597      6598      6596      6594      6597      6599
      6596      6594      6597      6600      6597      6600      6603      6604
      6597      6600      6603      6605      6597      6600      6603      6606
      6598      6597      6600      6601      6598      6597      6600      6602
      6598      6597      6600      6603      6599      6597      6600      6601
      6599      6597      6600      6602      6599      6597      6600      6603
      6600      6603      6606      6607      6600      6603      6606      6608
      6600      6603      6606      6609      6601      6600      6603      6604
      6601      6600      6603      6605      6601      6600      6603      6606
      6602      6600      6603      6604      6602      6600      6603      6605
      6602      6600      6603      6606      6603      6606      6609      6610
      6603      6606      6609      6611      6603      6606      6609      6612
      6604      6603      6606      6607      6604      6603      6606      6608
      6604      6603      6606      6609      6605      6603      6606      6607
      6605      6603      6606      6608      6605      6603      6606      6609
      6606      6609      6612      6613      6606      6609      6612      6614
      6606      6609      6612      6615      6607      6606      6609      6610
      6607      6606      6609      6611      6607      6606      6609      6612
      6608      6606      6609      6610      6608      6606      6609      6611
      6608      6606      6609      6612      6609      6612      6615      6616
      6609      6612      6615      6617      6609      6612      6615      6618
      6610      6609      6612      6613      6610      6609      6612      6614
      6610      6609      6612      6615      6611      6609      6612      6613
      6611      6609      6612      6614      6611      6609      6612      6615
      6612      6615      6618      6619      6612      6615      6618      6620
      6612      6615      6618      6621      6613      6612      6615      6616
      6613      6612      6615      6617      6613      6612      6615      6618
      6614      6612      6615      6616      6614      6612      6615      6617
      6614      6612      6615      6618      6615      6618      6621      6622
      6615      6618      6621      6623      6615      6618      6621      6624
      6616      6615      6618      6619      6616      6615      6618      6620
      6616      6615      6618      6621      6617      6615      6618      6619
      6617      6615      6618      6620      6617      6615      6618      6621
      6619      6618      6621      6622      6619      6618      6621      6623
      6619      6618      6621      6624      6620      6618      6621      6622
      6620      6618      6621      6623      6620      6618      6621      6624
      6625      6629      6632      6633      6625      6629      6632      6663
      6625      6671      6668      6663      6625      6671      6668      6669
      6625      6671      6668      6670      6626      6625      6627      6628
      6626      6625      6629      6630      6626      6625      6629      6631
      6626      6625      6629      6632      6626      6625      6671      6668
      6626      6625      6671      6672      6626      6625      6671      6673
      6627      6625      6629      6630      6627      6625      6629      6631
      6627      6625      6629      6632      6627      6625      6671      6668
      6627      6625      6671      6672      6627      6625      6671      6673
      6628      6627      6625      6629      6628      6627      6625      6671
      6629      6625      6671      6668      6629      6625      6671      6672
      6629      6625      6671      6673      6629      6632      6633      6634
      6629      6632      6633      6635      6629      6632      6663      6661
      6629      6632      6663      6664      6629      6632      6663      6668
      6630      6629      6625      6671      6630      6629      6632      6633
      6630      6629      6632      6663      6631      6629      6625      6671
      6631      6629      6632      6633      6631      6629      6632      6663
      6632      6629      6625      6671      6632      6633      6635      6636
      6632      6633      6635      6637      6632      6633      6635      6638
      6632      6663      6661      6638      6632      6663      6661      6658
      6632      6663      6661      6662      6632      6663      6664      6665
      6632      6663      6664      6666      6632      6663      6664      6667
      6632      6663      6668      6669      6632      6663      6668      6670
      6632      6663      6668      6671      6633      6632      6663      6661
      6633      6632      6663      6664      6633      6632      6663      6668
      6633      6635      6638      6639      6633      6635      6638      6640
      6633      6635      6638      6661      6634      6633      6632      6663
      6634      6633      6635      6636      6634      6633      6635      6637
      6634      6633      6635      6638      6635      6633      6632      6663
      6635      6638      6640      6641      6635      6638      6640      6642
      6635      6638      6640      6650      6635      6638      6661      6658
      6635      6638      6661      6662      6635      6638      6661      6663
      6636      6635      6638      6639      6636      6635      6638      6640
      6636      6635      6638      6661      6637      6635      6638      6639
      6637      6635      6638      6640      6637      6635      6638      6661
      6638      6640      6642      6643      6638      6640      6642      6644
      6638      6640      6642      6645      6638      6640      6650      6648
      6638      6640      6650      6651      6638      6640      6650      6655
      6638      6661      6658      6655      6638      6661      6658      6659
      6638      6661      6658      6660      6638      6661      6663      6664
      6638      6661      6663      6668      6639      6638      6640      6641
      6639      6638      6640      6642      6639      6638      6640      6650
      6639      6638      6661      6658      6639      6638      6661      6662
      6639      6638      6661      6663      6640      6638      6661      6658
      6640      6638      6661      6662      6640      6638      6661      6663
      6640      6642      6645      6646      6640      6642      6645      6647
      6640      6642      6645      6648      6640      6650      6648      6645
      6640      6650      6648      6649      6640      6650      6648      6674
      6640      6650      6651      6652      6640      6650      6651      6653
      6640      6650      6651      6654      6640      6650      6655      6656
      6640      6650      6655      6657      6640      6650      6655      6658
      6641      6640      6638      6661      6641      6640      6642      6643
      6641      6640      6642      6644      6641      6640      6642      6645
      6641      6640      6650      6648      6641      6640      6650      6651
      6641      6640      6650      6655      6642      6640      6638      6661
      6642      6640      6650      6648      6642      6640      6650      6651
      6642      6640      6650      6655      6642      6645      6648      6649
      6642      6645      6648      6650      6642      6645      6648      6674
      6643      6642      6640      6650      6643      6642      6645      6646
      6643      6642      6645      6647      6643      6642      6645      6648
      6644      6642      6640      6650      6644      6642      6645      6646
      6644      6642      6645      6647      6644      6642      6645      6648
      6645      6642      6640      6650      6645      6648      6650      6651
      6645      6648      6650      6655      6645      6648      6674      6675
      6645      6648      6674      6676      6645      6648      6674      6680
      6646      6645      6648      6649      6646      6645      6648      6650
      6646      6645      6648      6674      6647      6645      6648      6649
      6647      6645      6648      6650      6647      6645      6648      6674
      6648      6650      6651      6652      6648      6650      6651      6653
      6648      6650      6651      6654      6648      6650      6655      6656
      6648      6650      6655      6657      6648      6650      6655      6658
      6648      6674      6676      6677      6648      6674      6676      6678
      6648      6674      6676      6679      6648      6674      6680      6681
      6648      6674      6680      6682      6648      6674      6680      6683
      6649      6648      6650      6651      6649      6648      6650      6655
      6649      6648      6674      6675      6649      6648      6674      6676
      6649      6648      6674      6680      6650      6640      6638      6661
      6650      6648      6674      6675      6650      6648      6674      6676
      6650      6648      6674      6680      6650      6655      6658      6659
      6650      6655      6658      6660      6650      6655      6658      6661
      6651      6650      6648      6674      6651      6650      6655      6656
      6651      6650      6655      6657      6651      6650      6655      6658
      6652      6651      6650      6655      6653      6651      6650      6655
      6654      6651      6650      6655      6655      6650      6648      6674
      6655      6658      6661      6662      6655      6658      6661      6663
      6656      6655      6658      6659      6656      6655      6658      6660
      6656      6655      6658      6661      6657      6655      6658      6659
      6657      6655      6658      6660      6657      6655      6658      6661
      6658      6661      6663      6664      6658      6661      6663      6668
      6659      6658      6661      6662      6659      6658      6661      6663
      6660      6658      6661      6662      6660      6658      6661      6663
      6661      6663      6664      6665      6661      6663      6664      6666
      6661      6663      6664      6667      6661      6663      6668      6669
      6661      6663      6668      6670      6661      6663      6668      6671
      6662      6661      6663      6664      6662      6661      6663      6668
      6663      6668      6671      6672      6663      6668      6671      6673
      6664      6663      6668      6669      6664      6663      6668      6670
      6664      6663      6668      6671      6665      6664      6663      6668
      6666      6664      6663      6668      6667      6664      6663      6668
      6669      6668      6671      6672      6669      6668      6671      6673
      6670      6668      6671      6672      6670      6668      6671      6673
      6674      6680      6683      6684      6674      6680      6683      6685
      6674      6680      6683      6686      6675      6674      6676      6677
      6675      6674      6676      6678      6675      6674      6676      6679
      6675      6674      6680      6681      6675      6674      6680      6682
      6675      6674      6680      6683      6676      6674      6680      6681
      6676      6674      6680      6682      6676      6674      6680      6683
      6677      6676      6674      6680      6678      6676      6674      6680
      6679      6676      6674      6680      6680      6683      6686      6687
      6680      6683      6686      6688      6680      6683      6686      6689
      6681      6680      6683      6684      6681      6680      6683      6685
      6681      6680      6683      6686      6682      6680      6683      6684
      6682      6680      6683      6685      6682      6680      6683      6686
      6683      6686      6689      6690      6683      6686      6689      6691
      6683      6686      6689      6695      6684      6683      6686      6687
      6684      6683      6686      6688      6684      6683      6686      6689
      6685      6683      6686      6687      6685      6683      6686      6688
      6685      6683      6686      6689      6686      6689      6691      6692
      6686      6689      6691      6693      6686      6689      6691      6694
      6686      6689      6695      6696      6686      6689      6695      6697
      6686      6689      6695      6698      6687      6686      6689      6690
      6687      6686      6689      6691      6687      6686      6689      6695
      6688      6686      6689      6690      6688      6686      6689      6691
      6688      6686      6689      6695      6690      6689      6691      6692
      6690      6689      6691      6693      6690      6689      6691      6694
      6690      6689      6695      6696      6690      6689      6695      6697
      6690      6689      6695      6698      6691      6689      6695      6696
      6691      6689      6695      6697      6691      6689      6695      6698
      6692      6691      6689      6695      6693      6691      6689      6695
      6694      6691      6689      6695      6699      6703      6706      6707
      6699      6703      6706      6737      6699      6745      6742      6737
      6699      6745      6742      6743      6699      6745      6742      6744
      6700      6699      6701      6702      6700      6699      6703      6704
      6700      6699      6703      6705      6700      6699      6703      6706
      6700      6699      6745      6742      6700      6699      6745      6746
      6700      6699      6745      6747      6701      6699      6703      6704
      6701      6699      6703      6705      6701      6699      6703      6706
      6701      6699      6745      6742      6701      6699      6745      6746
      6701      6699      6745      6747      6702      6701      6699      6703
      6702      6701      6699      6745      6703      6699      6745      6742
      6703      6699      6745      6746      6703      6699      6745      6747
      6703      6706      6707      6708      6703      6706      6707      6709
      6703      6706      6737      6735      6703      6706      6737      6738
      6703      6706      6737      6742      6704      6703      6699      6745
      6704      6703      6706      6707      6704      6703      6706      6737
      6705      6703      6699      6745      6705      6703      6706      6707
      6705      6703      6706      6737      6706      6703      6699      6745
      6706      6707      6709      6710      6706      6707      6709      6711
      6706      6707      6709      6712      6706      6737      6735      6712
      6706      6737      6735      6732      6706      6737      6735      6736
      6706      6737      6738      6739      6706      6737      6738      6740
      6706      6737      6738      6741      6706      6737      6742      6743
      6706      6737      6742      6744      6706      6737      6742      6745
      6707      6706      6737      6735      6707      6706      6737      6738
      6707      6706      6737      6742      6707      6709      6712      6713
      6707      6709      6712      6714      6707      6709      6712      6735
      6708      6707      6706      6737      6708      6707      6709      6710
      6708      6707      6709      6711      6708      6707      6709      6712
      6709      6707      6706      6737      6709      6712      6714      6715
      6709      6712      6714      6716      6709      6712      6714      6724
      6709      6712      6735      6732      6709      6712      6735      6736
      6709      6712      6735      6737      6710      6709      6712      6713
      6710      6709      6712      6714      6710      6709      6712      6735
      6711      6709      6712      6713      6711      6709      6712      6714
      6711      6709      6712      6735      6712      6714      6716      6717
      6712      6714      6716      6718      6712      6714      6716      6719
      6712      6714      6724      6722      6712      6714      6724      6725
      6712      6714      6724      6729      6712      6735      6732      6729
      6712      6735      6732      6733      6712      6735      6732      6734
      6712      6735      6737      6738      6712      6735      6737      6742
      6713      6712      6714      6715      6713      6712      6714      6716
      6713      6712      6714      6724      6713      6712      6735      6732
      6713      6712      6735      6736      6713      6712      6735      6737
      6714      6712      6735      6732      6714      6712      6735      6736
      6714      6712      6735      6737      6714      6716      6719      6720
      6714      6716      6719      6721      6714      6716      6719      6722
      6714      6724      6722      6719      6714      6724      6722      6723
      6714      6724      6722      6748      6714      6724      6725      6726
      6714      6724      6725      6727      6714      6724      6725      6728
      6714      6724      6729      6730      6714      6724      6729      6731
      6714      6724      6729      6732      6715      6714      6712      6735
      6715      6714      6716      6717      6715      6714      6716      6718
      6715      6714      6716      6719      6715      6714      6724      6722
      6715      6714      6724      6725      6715      6714      6724      6729
      6716      6714      6712      6735      6716      6714      6724      6722
      6716      6714      6724      6725      6716      6714      6724      6729
      6716      6719      6722      6723      6716      6719      6722      6724
      6716      6719      6722      6748      6717      6716      6714      6724
      6717      6716      6719      6720      6717      6716      6719      6721
      6717      6716      6719      6722      6718      6716      6714      6724
      6718      6716      6719      6720      6718      6716      6719      6721
      6718      6716      6719      6722      6719      6716      6714      6724
      6719      6722      6724      6725      6719      6722      6724      6729
      6719      6722      6748      6749      6719      6722      6748      6750
      6719      6722      6748      6754      6720      6719      6722      6723
      6720      6719      6722      6724      6720      6719      6722      6748
      6721      6719      6722      6723      6721      6719      6722      6724
      6721      6719      6722      6748      6722      6724      6725      6726
      6722      6724      6725      6727      6722      6724      6725      6728
      6722      6724      6729      6730      6722      6724      6729      6731
      6722      6724      6729      6732      6722      6748      6750      6751
      6722      6748      6750      6752      6722      6748      6750      6753
      6722      6748      6754      6755      6722      6748      6754      6756
      6722      6748      6754      6757      6723      6722      6724      6725
      6723      6722      6724      6729      6723      6722      6748      6749
      6723      6722      6748      6750      6723      6722      6748      6754
      6724      6714      6712      6735      6724      6722      6748      6749
      6724      6722      6748      6750      6724      6722      6748      6754
      6724      6729      6732      6733      6724      6729      6732      6734
      6724      6729      6732      6735      6725      6724      6722      6748
      6725      6724      6729      6730      6725      6724      6729      6731
      6725      6724      6729      6732      6726      6725      6724      6729
      6727      6725      6724      6729      6728      6725      6724      6729
      6729      6724      6722      6748      6729      6732      6735      6736
      6729      6732      6735      6737      6730      6729      6732      6733
      6730      6729      6732      6734      6730      6729      6732      6735
      6731      6729      6732      6733      6731      6729      6732      6734
      6731      6729      6732      6735      6732      6735      6737      6738
      6732      6735      6737      6742      6733      6732      6735      6736
      6733      6732      6735      6737      6734      6732      6735      6736
      6734      6732      6735      6737      6735      6737      6738      6739
      6735      6737      6738      6740      6735      6737      6738      6741
      6735      6737      6742      6743      6735      6737      6742      6744
      6735      6737      6742      6745      6736      6735      6737      6738
      6736      6735      6737      6742      6737      6742      6745      6746
      6737      6742      6745      6747      6738      6737      6742      6743
      6738      6737      6742      6744      6738      6737      6742      6745
      6739      6738      6737      6742      6740      6738      6737      6742
      6741      6738      6737      6742      6743      6742      6745      6746
      6743      6742      6745      6747      6744      6742      6745      6746
      6744      6742      6745      6747      6748      6754      6757      6758
      6748      6754      6757      6759      6748      6754      6757      6760
      6749      6748      6750      6751      6749      6748      6750      6752
      6749      6748      6750      6753      6749      6748      6754      6755
      6749      6748      6754      6756      6749      6748      6754      6757
      6750      6748      6754      6755      6750      6748      6754      6756
      6750      6748      6754      6757      6751      6750      6748      6754
      6752      6750      6748      6754      6753      6750      6748      6754
      6754      6757      6760      6761      6754      6757      6760      6762
      6754      6757      6760      6763      6755      6754      6757      6758
      6755      6754      6757      6759      6755      6754      6757      6760
      6756      6754      6757      6758      6756      6754      6757      6759
      6756      6754      6757      6760      6757      6760      6763      6764
      6757      6760      6763      6765      6757      6760      6763      6769
      6758      6757      6760      6761      6758      6757      6760      6762
      6758      6757      6760      6763      6759      6757      6760      6761
      6759      6757      6760      6762      6759      6757      6760      6763
      6760      6763      6765      6766      6760      6763      6765      6767
      6760      6763      6765      6768      6760      6763      6769      6770
      6760      6763      6769      6771      6760      6763      6769      6772
      6761      6760      6763      6764      6761      6760      6763      6765
      6761      6760      6763      6769      6762      6760      6763      6764
      6762      6760      6763      6765      6762      6760      6763      6769
      6764      6763      6765      6766      6764      6763      6765      6767
      6764      6763      6765      6768      6764      6763      6769      6770
      6764      6763      6769      6771      6764      6763      6769      6772
      6765      6763      6769      6770      6765      6763      6769      6771
      6765      6763      6769      6772      6766      6765      6763      6769
      6767      6765      6763      6769      6768      6765      6763      6769
      6773      6777      6780      6781      6773      6777      6780      6811
      6773      6819      6816      6811      6773      6819      6816      6817
      6773      6819      6816      6818      6774      6773      6775      6776
      6774      6773      6777      6778      6774      6773      6777      6779
      6774      6773      6777      6780      6774      6773      6819      6816
      6774      6773      6819      6820      6774      6773      6819      6821
      6775      6773      6777      6778      6775      6773      6777      6779
      6775      6773      6777      6780      6775      6773      6819      6816
      6775      6773      6819      6820      6775      6773      6819      6821
      6776      6775      6773      6777      6776      6775      6773      6819
      6777      6773      6819      6816      6777      6773      6819      6820
      6777      6773      6819      6821      6777      6780      6781      6782
      6777      6780      6781      6783      6777      6780      6811      6809
      6777      6780      6811      6812      6777      6780      6811      6816
      6778      6777      6773      6819      6778      6777      6780      6781
      6778      6777      6780      6811      6779      6777      6773      6819
      6779      6777      6780      6781      6779      6777      6780      6811
      6780      6777      6773      6819      6780      6781      6783      6784
      6780      6781      6783      6785      6780      6781      6783      6786
      6780      6811      6809      6786      6780      6811      6809      6806
      6780      6811      6809      6810      6780      6811      6812      6813
      6780      6811      6812      6814      6780      6811      6812      6815
      6780      6811      6816      6817      6780      6811      6816      6818
      6780      6811      6816      6819      6781      6780      6811      6809
      6781      6780      6811      6812      6781      6780      6811      6816
      6781      6783      6786      6787      6781      6783      6786      6788
      6781      6783      6786      6809      6782      6781      6780      6811
      6782      6781      6783      6784      6782      6781      6783      6785
      6782      6781      6783      6786      6783      6781      6780      6811
      6783      6786      6788      6789      6783      6786      6788      6790
      6783      6786      6788      6798      6783      6786      6809      6806
      6783      6786      6809      6810      6783      6786      6809      6811
      6784      6783      6786      6787      6784      6783      6786      6788
      6784      6783      6786      6809      6785      6783      6786      6787
      6785      6783      6786      6788      6785      6783      6786      6809
      6786      6788      6790      6791      6786      6788      6790      6792
      6786      6788      6790      6793      6786      6788      6798      6796
      6786      6788      6798      6799      6786      6788      6798      6803
      6786      6809      6806      6803      6786      6809      6806      6807
      6786      6809      6806      6808      6786      6809      6811      6812
      6786      6809      6811      6816      6787      6786      6788      6789
      6787      6786      6788      6790      6787      6786      6788      6798
      6787      6786      6809      6806      6787      6786      6809      6810
      6787      6786      6809      6811      6788      6786      6809      6806
      6788      6786      6809      6810      6788      6786      6809      6811
      6788      6790      6793      6794      6788      6790      6793      6795
      6788      6790      6793      6796      6788      6798      6796      6793
      6788      6798      6796      6797      6788      6798      6796      6822
      6788      6798      6799      6800      6788      6798      6799      6801
      6788      6798      6799      6802      6788      6798      6803      6804
      6788      6798      6803      6805      6788      6798      6803      6806
      6789      6788      6786      6809      6789      6788      6790      6791
      6789      6788      6790      6792      6789      6788      6790      6793
      6789      6788      6798      6796      6789      6788      6798      6799
      6789      6788      6798      6803      6790      6788      6786      6809
      6790      6788      6798      6796      6790      6788      6798      6799
      6790      6788      6798      6803      6790      6793      6796      6797
      6790      6793      6796      6798      6790      6793      6796      6822
      6791      6790      6788      6798      6791      6790      6793      6794
      6791      6790      6793      6795      6791      6790      6793      6796
      6792      6790      6788      6798      6792      6790      6793      6794
      6792      6790      6793      6795      6792      6790      6793      6796
      6793      6790      6788      6798      6793      6796      6798      6799
      6793      6796      6798      6803      6793      6796      6822      6823
      6793      6796      6822      6824      6793      6796      6822      6828
      6794      6793      6796      6797      6794      6793      6796      6798
      6794      6793      6796      6822      6795      6793      6796      6797
      6795      6793      6796      6798      6795      6793      6796      6822
      6796      6798      6799      6800      6796      6798      6799      6801
      6796      6798      6799      6802      6796      6798      6803      6804
      6796      6798      6803      6805      6796      6798      6803      6806
      6796      6822      6824      6825      6796      6822      6824      6826
      6796      6822      6824      6827      6796      6822      6828      6829
      6796      6822      6828      6830      6796      6822      6828      6831
      6797      6796      6798      6799      6797      6796      6798      6803
      6797      6796      6822      6823      6797      6796      6822      6824
      6797      6796      6822      6828      6798      6788      6786      6809
      6798      6796      6822      6823      6798      6796      6822      6824
      6798      6796      6822      6828      6798      6803      6806      6807
      6798      6803      6806      6808      6798      6803      6806      6809
      6799      6798      6796      6822      6799      6798      6803      6804
      6799      6798      6803      6805      6799      6798      6803      6806
      6800      6799      6798      6803      6801      6799      6798      6803
      6802      6799      6798      6803      6803      6798      6796      6822
      6803      6806      6809      6810      6803      6806      6809      6811
      6804      6803      6806      6807      6804      6803      6806      6808
      6804      6803      6806      6809      6805      6803      6806      6807
      6805      6803      6806      6808      6805      6803      6806      6809
      6806      6809      6811      6812      6806      6809      6811      6816
      6807      6806      6809      6810      6807      6806      6809      6811
      6808      6806      6809      6810      6808      6806      6809      6811
      6809      6811      6812      6813      6809      6811      6812      6814
      6809      6811      6812      6815      6809      6811      6816      6817
      6809      6811      6816      6818      6809      6811      6816      6819
      6810      6809      6811      6812      6810      6809      6811      6816
      6811      6816      6819      6820      6811      6816      6819      6821
      6812      6811      6816      6817      6812      6811      6816      6818
      6812      6811      6816      6819      6813      6812      6811      6816
      6814      6812      6811      6816      6815      6812      6811      6816
      6817      6816      6819      6820      6817      6816      6819      6821
      6818      6816      6819      6820      6818      6816      6819      6821
      6822      6828      6831      6832      6822      6828      6831      6833
      6822      6828      6831      6834      6823      6822      6824      6825
      6823      6822      6824      6826      6823      6822      6824      6827
      6823      6822      6828      6829      6823      6822      6828      6830
      6823      6822      6828      6831      6824      6822      6828      6829
      6824      6822      6828      6830      6824      6822      6828      6831
      6825      6824      6822      6828      6826      6824      6822      6828
      6827      6824      6822      6828      6828      6831      6834      6835
      6828      6831      6834      6836      6828      6831      6834      6837
      6829      6828      6831      6832      6829      6828      6831      6833
      6829      6828      6831      6834      6830      6828      6831      6832
      6830      6828      6831      6833      6830      6828      6831      6834
      6831      6834      6837      6838      6831      6834      6837      6839
      6831      6834      6837      6843      6832      6831      6834      6835
      6832      6831      6834      6836      6832      6831      6834      6837
      6833      6831      6834      6835      6833      6831      6834      6836
      6833      6831      6834      6837      6834      6837      6839      6840
      6834      6837      6839      6841      6834      6837      6839      6842
      6834      6837      6843      6844      6834      6837      6843      6845
      6834      6837      6843      6846      6835      6834      6837      6838
      6835      6834      6837      6839      6835      6834      6837      6843
      6836      6834      6837      6838      6836      6834      6837      6839
      6836      6834      6837      6843      6838      6837      6839      6840
      6838      6837      6839      6841      6838      6837      6839      6842
      6838      6837      6843      6844      6838      6837      6843      6845
      6838      6837      6843      6846      6839      6837      6843      6844
      6839      6837      6843      6845      6839      6837      6843      6846
      6840      6839      6837      6843      6841      6839      6837      6843
      6842      6839      6837      6843      6847      6851      6854      6855
      6847      6851      6854      6885      6847      6893      6890      6885
      6847      6893      6890      6891      6847      6893      6890      6892
      6848      6847      6849      6850      6848      6847      6851      6852
      6848      6847      6851      6853      6848      6847      6851      6854
      6848      6847      6893      6890      6848      6847      6893      6894
      6848      6847      6893      6895      6849      6847      6851      6852
      6849      6847      6851      6853      6849      6847      6851      6854
      6849      6847      6893      6890      6849      6847      6893      6894
      6849      6847      6893      6895      6850      6849      6847      6851
      6850      6849      6847      6893      6851      6847      6893      6890
      6851      6847      6893      6894      6851      6847      6893      6895
      6851      6854      6855      6856      6851      6854      6855      6857
      6851      6854      6885      6883      6851      6854      6885      6886
      6851      6854      6885      6890      6852      6851      6847      6893
      6852      6851      6854      6855      6852      6851      6854      6885
      6853      6851      6847      6893      6853      6851      6854      6855
      6853      6851      6854      6885      6854      6851      6847      6893
      6854      6855      6857      6858      6854      6855      6857      6859
      6854      6855      6857      6860      6854      6885      6883      6860
      6854      6885      6883      6880      6854      6885      6883      6884
      6854      6885      6886      6887      6854      6885      6886      6888
      6854      6885      6886      6889      6854      6885      6890      6891
      6854      6885      6890      6892      6854      6885      6890      6893
      6855      6854      6885      6883      6855      6854      6885      6886
      6855      6854      6885      6890      6855      6857      6860      6861
      6855      6857      6860      6862      6855      6857      6860      6883
      6856      6855      6854      6885      6856      6855      6857      6858
      6856      6855      6857      6859      6856      6855      6857      6860
      6857      6855      6854      6885      6857      6860      6862      6863
      6857      6860      6862      6864      6857      6860      6862      6872
      6857      6860      6883      6880      6857      6860      6883      6884
      6857      6860      6883      6885      6858      6857      6860      6861
      6858      6857      6860      6862      6858      6857      6860      6883
      6859      6857      6860      6861      6859      6857      6860      6862
      6859      6857      6860      6883      6860      6862      6864      6865
      6860      6862      6864      6866      6860      6862      6864      6867
      6860      6862      6872      6870      6860      6862      6872      6873
      6860      6862      6872      6877      6860      6883      6880      6877
      6860      6883      6880      6881      6860      6883      6880      6882
      6860      6883      6885      6886      6860      6883      6885      6890
      6861      6860      6862      6863      6861      6860      6862      6864
      6861      6860      6862      6872      6861      6860      6883      6880
      6861      6860      6883      6884      6861      6860      6883      6885
      6862      6860      6883      6880      6862      6860      6883      6884
      6862      6860      6883      6885      6862      6864      6867      6868
      6862      6864      6867      6869      6862      6864      6867      6870
      6862      6872      6870      6867      6862      6872      6870      6871
      6862      6872      6870      6896      6862      6872      6873      6874
      6862      6872      6873      6875      6862      6872      6873      6876
      6862      6872      6877      6878      6862      6872      6877      6879
      6862      6872      6877      6880      6863      6862      6860      6883
      6863      6862      6864      6865      6863      6862      6864      6866
      6863      6862      6864      6867      6863      6862      6872      6870
      6863      6862      6872      6873      6863      6862      6872      6877
      6864      6862      6860      6883      6864      6862      6872      6870
      6864      6862      6872      6873      6864      6862      6872      6877
      6864      6867      6870      6871      6864      6867      6870      6872
      6864      6867      6870      6896      6865      6864      6862      6872
      6865      6864      6867      6868      6865      6864      6867      6869
      6865      6864      6867      6870      6866      6864      6862      6872
      6866      6864      6867      6868      6866      6864      6867      6869
      6866      6864      6867      6870      6867      6864      6862      6872
      6867      6870      6872      6873      6867      6870      6872      6877
      6867      6870      6896      6897      6867      6870      6896      6898
      6867      6870      6896      6902      6868      6867      6870      6871
      6868      6867      6870      6872      6868      6867      6870      6896
      6869      6867      6870      6871      6869      6867      6870      6872
      6869      6867      6870      6896      6870      6872      6873      6874
      6870      6872      6873      6875      6870      6872      6873      6876
      6870      6872      6877      6878      6870      6872      6877      6879
      6870      6872      6877      6880      6870      6896      6898      6899
      6870      6896      6898      6900      6870      6896      6898      6901
      6870      6896      6902      6903      6870      6896      6902      6904
      6870      6896      6902      6905      6871      6870      6872      6873
      6871      6870      6872      6877      6871      6870      6896      6897
      6871      6870      6896      6898      6871      6870      6896      6902
      6872      6862      6860      6883      6872      6870      6896      6897
      6872      6870      6896      6898      6872      6870      6896      6902
      6872      6877      6880      6881      6872      6877      6880      6882
      6872      6877      6880      6883      6873      6872      6870      6896
      6873      6872      6877      6878      6873      6872      6877      6879
      6873      6872      6877      6880      6874      6873      6872      6877
      6875      6873      6872      6877      6876      6873      6872      6877
      6877      6872      6870      6896      6877      6880      6883      6884
      6877      6880      6883      6885      6878      6877      6880      6881
      6878      6877      6880      6882      6878      6877      6880      6883
      6879      6877      6880      6881      6879      6877      6880      6882
      6879      6877      6880      6883      6880      6883      6885      6886
      6880      6883      6885      6890      6881      6880      6883      6884
      6881      6880      6883      6885      6882      6880      6883      6884
      6882      6880      6883      6885      6883      6885      6886      6887
      6883      6885      6886      6888      6883      6885      6886      6889
      6883      6885      6890      6891      6883      6885      6890      6892
      6883      6885      6890      6893      6884      6883      6885      6886
      6884      6883      6885      6890      6885      6890      6893      6894
      6885      6890      6893      6895      6886      6885      6890      6891
      6886      6885      6890      6892      6886      6885      6890      6893
      6887      6886      6885      6890      6888      6886      6885      6890
      6889      6886      6885      6890      6891      6890      6893      6894
      6891      6890      6893      6895      6892      6890      6893      6894
      6892      6890      6893      6895      6896      6902      6905      6906
      6896      6902      6905      6907      6896      6902      6905      6908
      6897      6896      6898      6899      6897      6896      6898      6900
      6897      6896      6898      6901      6897      6896      6902      6903
      6897      6896      6902      6904      6897      6896      6902      6905
      6898      6896      6902      6903      6898      6896      6902      6904
      6898      6896      6902      6905      6899      6898      6896      6902
      6900      6898      6896      6902      6901      6898      6896      6902
      6902      6905      6908      6909      6902      6905      6908      6910
      6902      6905      6908      6911      6903      6902      6905      6906
      6903      6902      6905      6907      6903      6902      6905      6908
      6904      6902      6905      6906      6904      6902      6905      6907
      6904      6902      6905      6908      6905      6908      6911      6912
      6905      6908      6911      6913      6905      6908      6911      6917
      6906      6905      6908      6909      6906      6905      6908      6910
      6906      6905      6908      6911      6907      6905      6908      6909
      6907      6905      6908      6910      6907      6905      6908      6911
      6908      6911      6913      6914      6908      6911      6913      6915
      6908      6911      6913      6916      6908      6911      6917      6918
      6908      6911      6917      6919      6908      6911      6917      6920
      6909      6908      6911      6912      6909      6908      6911      6913
      6909      6908      6911      6917      6910      6908      6911      6912
      6910      6908      6911      6913      6910      6908      6911      6917
      6912      6911      6913      6914      6912      6911      6913      6915
      6912      6911      6913      6916      6912      6911      6917      6918
      6912      6911      6917      6919      6912      6911      6917      6920
      6913      6911      6917      6918      6913      6911      6917      6919
      6913      6911      6917      6920      6914      6913      6911      6917
      6915      6913      6911      6917      6916      6913      6911      6917
      6921      6925      6927      6928      6921      6925      6929      6930
      6921      6925      6929      6931      6921      6925      6929      6933
      6921      6941      6937      6933      6921      6941      6937      6938
      6921      6941      6937      6939      6921      6941      6946      6943
      6922      6921      6923      6924      6922      6921      6925      6926
      6922      6921      6925      6927      6922      6921      6925      6929
      6922      6921      6941      6937      6922      6921      6941      6942
      6922      6921      6941      6946      6923      6921      6925      6926
      6923      6921      6925      6927      6923      6921      6925      6929
      6923      6921      6941      6937      6923      6921      6941      6942
      6923      6921      6941      6946      6924      6923      6921      6925
      6924      6923      6921      6941      6925      6921      6941      6937
      6925      6921      6941      6942      6925      6921      6941      6946
      6925      6929      6931      6932      6925      6929      6933      6934
      6925      6929      6933      6935      6925      6929      6933      6937
      6926      6925      6921      6941      6926      6925      6927      6928
      6926      6925      6929      6930      6926      6925      6929      6931
      6926      6925      6929      6933      6927      6925      6921      6941
      6927      6925      6929      6930      6927      6925      6929      6931
      6927      6925      6929      6933      6928      6927      6925      6929
      6929      6925      6921      6941      6929      6933      6935      6936
      6929      6933      6937      6938      6929      6933      6937      6939
      6929      6933      6937      6941      6930      6929      6931      6932
      6930      6929      6933      6934      6930      6929      6933      6935
      6930      6929      6933      6937      6931      6929      6933      6934
      6931      6929      6933      6935      6931      6929      6933      6937
      6932      6931      6929      6933      6933      6937      6939      6940
      6933      6937      6941      6942      6933      6937      6941      6946
      6934      6933      6935      6936      6934      6933      6937      6938
      6934      6933      6937      6939      6934      6933      6937      6941
      6935      6933      6937      6938      6935      6933      6937      6939
      6935      6933      6937      6941      6936      6935      6933      6937
      6937      6941      6946      6943      6938      6937      6939      6940
      6938      6937      6941      6942      6938      6937      6941      6946
      6939      6937      6941      6942      6939      6937      6941      6946
      6940      6939      6937      6941      6941      6946      6943      6944
      6941      6946      6943      6945      6941      6946      6943      6947
      6942      6941      6946      6943      6943      6947      6948      6949
      6943      6947      6948      6950      6943      6947      6948      6951
      6944      6943      6947      6948      6945      6943      6947      6948
      6946      6943      6947      6948      6947      6948      6951      6952
      6947      6948      6951      6953      6947      6948      6951      6959
      6948      6951      6953      6954      6948      6951      6959      6960
      6948      6951      6959      6961      6948      6951      6959      6962
      6949      6948      6951      6952      6949      6948      6951      6953
      6949      6948      6951      6959      6950      6948      6951      6952
      6950      6948      6951      6953      6950      6948      6951      6959
      6951      6953      6954      6955      6951      6953      6954      6956
      6951      6959      6962      6963      6952      6951      6953      6954
      6952      6951      6959      6960      6952      6951      6959      6961
      6952      6951      6959      6962      6953      6951      6959      6960
      6953      6951      6959      6961      6953      6951      6959      6962
      6953      6954      6956      6957      6953      6954      6956      6958
      6953      6954      6956      6968      6954      6953      6951      6959
      6954      6956      6968      6969      6954      6956      6968      6970
      6954      6956      6968      6971      6955      6954      6956      6957
      6955      6954      6956      6958      6955      6954      6956      6968
      6956      6968      6971      6972      6956      6968      6971      6973
      6956      6968      6971      6974      6957      6956      6968      6969
      6957      6956      6968      6970      6957      6956      6968      6971
      6958      6956      6968      6969      6958      6956      6968      6970
      6958      6956      6968      6971      6959      6962      6963      6964
      6959      6962      6963      6965      6960      6959      6962      6963
      6961      6959      6962      6963      6962      6963      6965      6966
      6962      6963      6965      6967      6962      6963      6965      7015
      6963      6965      7015      7016      6963      6965      7015      7017
      6963      6965      7015      7018      6964      6963      6965      6966
      6964      6963      6965      6967      6964      6963      6965      7015
      6965      7015      7018      7019      6965      7015      7018      7020
      6965      7015      7018      7021      6966      6965      7015      7016
      6966      6965      7015      7017      6966      6965      7015      7018
      6967      6965      7015      7016      6967      6965      7015      7017
      6967      6965      7015      7018      6968      6971      6974      6975
      6968      6971      6974      6976      6969      6968      6971      6972
      6969      6968      6971      6973      6969      6968      6971      6974
      6970      6968      6971      6972      6970      6968      6971      6973
      6970      6968      6971      6974      6971      6974      6976      6977
      6971      6974      6976      6978      6972      6971      6974      6975
      6972      6971      6974      6976      6973      6971      6974      6975
      6973      6971      6974      6976      6974      6976      6978      6979
      6974      6976      6978      6980      6974      6976      6978      6981
      6975      6974      6976      6977      6975      6974      6976      6978
      6976      6978      6981      6982      6976      6978      6981      6983
      6977      6976      6978      6979      6977      6976      6978      6980
      6977      6976      6978      6981      6978      6981      6983      6984
      6978      6981      6983      6985      6979      6978      6981      6982
      6979      6978      6981      6983      6980      6978      6981      6982
      6980      6978      6981      6983      6981      6983      6985      6986
      6981      6983      6985      6987      6981      6983      6985      6988
      6982      6981      6983      6984      6982      6981      6983      6985
      6983      6985      6988      6989      6983      6985      6988      6990
      6984      6983      6985      6986      6984      6983      6985      6987
      6984      6983      6985      6988      6985      6988      6990      6991
      6985      6988      6990      6992      6986      6985      6988      6989
      6986      6985      6988      6990      6987      6985      6988      6989
      6987      6985      6988      6990      6988      6990      6992      6993
      6988      6990      6992      6994      6988      6990      6992      6995
      6989      6988      6990      6991      6989      6988      6990      6992
      6990      6992      6995      6996      6990      6992      6995      6997
      6991      6990      6992      6993      6991      6990      6992      6994
      6991      6990      6992      6995      6992      6995      6997      6998
      6992      6995      6997      6999      6993      6992      6995      6996
      6993      6992      6995      6997      6994      6992      6995      6996
      6994      6992      6995      6997      6995      6997      6999      7000
      6995      6997      6999      7001      6995      6997      6999      7002
      6996      6995      6997      6998      6996      6995      6997      6999
      6997      6999      7002      7003      6997      6999      7002      7004
      6997      6999      7002      7005      6998      6997      6999      7000
      6998      6997      6999      7001      6998      6997      6999      7002
      6999      7002      7005      7006      6999      7002      7005      7007
      6999      7002      7005      7008      7000      6999      7002      7003
      7000      6999      7002      7004      7000      6999      7002      7005
      7001      6999      7002      7003      7001      6999      7002      7004
      7001      6999      7002      7005      7002      7005      7008      7009
      7002      7005      7008      7010      7002      7005      7008      7011
      7003      7002      7005      7006      7003      7002      7005      7007
      7003      7002      7005      7008      7004      7002      7005      7006
      7004      7002      7005      7007      7004      7002      7005      7008
      7005      7008      7011      7012      7005      7008      7011      7013
      7005      7008      7011      7014      7006      7005      7008      7009
      7006      7005      7008      7010      7006      7005      7008      7011
      7007      7005      7008      7009      7007      7005      7008      7010
      7007      7005      7008      7011      7009      7008      7011      7012
      7009      7008      7011      7013      7009      7008      7011      7014
      7010      7008      7011      7012      7010      7008      7011      7013
      7010      7008      7011      7014      7015      7018      7021      7022
      7015      7018      7021      7023      7015      7018      7021      7024
      7016      7015      7018      7019      7016      7015      7018      7020
      7016      7015      7018      7021      7017      7015      7018      7019
      7017      7015      7018      7020      7017      7015      7018      7021
      7018      7021      7024      7025      7018      7021      7024      7026
      7018      7021      7024      7027      7019      7018      7021      7022
      7019      7018      7021      7023      7019      7018      7021      7024
      7020      7018      7021      7022      7020      7018      7021      7023
      7020      7018      7021      7024      7021      7024      7027      7028
      7021      7024      7027      7029      7021      7024      7027      7030
      7022      7021      7024      7025      7022      7021      7024      7026
      7022      7021      7024      7027      7023      7021      7024      7025
      7023      7021      7024      7026      7023      7021      7024      7027
      7024      7027      7030      7031      7024      7027      7030      7032
      7024      7027      7030      7033      7025      7024      7027      7028
      7025      7024      7027      7029      7025      7024      7027      7030
      7026      7024      7027      7028      7026      7024      7027      7029
      7026      7024      7027      7030      7027      7030      7033      7034
      7027      7030      7033      7035      7027      7030      7033      7036
      7028      7027      7030      7031      7028      7027      7030      7032
      7028      7027      7030      7033      7029      7027      7030      7031
      7029      7027      7030      7032      7029      7027      7030      7033
      7030      7033      7036      7037      7030      7033      7036      7038
      7030      7033      7036      7039      7031      7030      7033      7034
      7031      7030      7033      7035      7031      7030      7033      7036
      7032      7030      7033      7034      7032      7030      7033      7035
      7032      7030      7033      7036      7033      7036      7039      7040
      7033      7036      7039      7041      7033      7036      7039      7042
      7034      7033      7036      7037      7034      7033      7036      7038
      7034      7033      7036      7039      7035      7033      7036      7037
      7035      7033      7036      7038      7035      7033      7036      7039
      7036      7039      7042      7043      7036      7039      7042      7044
      7036      7039      7042      7045      7037      7036      7039      7040
      7037      7036      7039      7041      7037      7036      7039      7042
      7038      7036      7039      7040      7038      7036      7039      7041
      7038      7036      7039      7042      7039      7042      7045      7046
      7039      7042      7045      7047      7039      7042      7045      7048
      7040      7039      7042      7043      7040      7039      7042      7044
      7040      7039      7042      7045      7041      7039      7042      7043
      7041      7039      7042      7044      7041      7039      7042      7045
      7042      7045      7048      7049      7042      7045      7048      7050
      7042      7045      7048      7051      7043      7042      7045      7046
      7043      7042      7045      7047      7043      7042      7045      7048
      7044      7042      7045      7046      7044      7042      7045      7047
      7044      7042      7045      7048      7045      7048      7051      7052
      7045      7048      7051      7053      7045      7048      7051      7054
      7046      7045      7048      7049      7046      7045      7048      7050
      7046      7045      7048      7051      7047      7045      7048      7049
      7047      7045      7048      7050      7047      7045      7048      7051
      7048      7051      7054      7055      7048      7051      7054      7056
      7048      7051      7054      7057      7049      7048      7051      7052
      7049      7048      7051      7053      7049      7048      7051      7054
      7050      7048      7051      7052      7050      7048      7051      7053
      7050      7048      7051      7054      7051      7054      7057      7058
      7051      7054      7057      7059      7051      7054      7057      7060
      7052      7051      7054      7055      7052      7051      7054      7056
      7052      7051      7054      7057      7053      7051      7054      7055
      7053      7051      7054      7056      7053      7051      7054      7057
      7054      7057      7060      7061      7054      7057      7060      7062
      7054      7057      7060      7063      7055      7054      7057      7058
      7055      7054      7057      7059      7055      7054      7057      7060
      7056      7054      7057      7058      7056      7054      7057      7059
      7056      7054      7057      7060      7058      7057      7060      7061
      7058      7057      7060      7062      7058      7057      7060      7063
      7059      7057      7060      7061      7059      7057      7060      7062
      7059      7057      7060      7063      7064      7068      7071      7072
      7064      7068      7071      7102      7064      7110      7107      7102
      7064      7110      7107      7108      7064      7110      7107      7109
      7065      7064      7066      7067      7065      7064      7068      7069
      7065      7064      7068      7070      7065      7064      7068      7071
      7065      7064      7110      7107      7065      7064      7110      7111
      7065      7064      7110      7112      7066      7064      7068      7069
      7066      7064      7068      7070      7066      7064      7068      7071
      7066      7064      7110      7107      7066      7064      7110      7111
      7066      7064      7110      7112      7067      7066      7064      7068
      7067      7066      7064      7110      7068      7064      7110      7107
      7068      7064      7110      7111      7068      7064      7110      7112
      7068      7071      7072      7073      7068      7071      7072      7074
      7068      7071      7102      7100      7068      7071      7102      7103
      7068      7071      7102      7107      7069      7068      7064      7110
      7069      7068      7071      7072      7069      7068      7071      7102
      7070      7068      7064      7110      7070      7068      7071      7072
      7070      7068      7071      7102      7071      7068      7064      7110
      7071      7072      7074      7075      7071      7072      7074      7076
      7071      7072      7074      7077      7071      7102      7100      7077
      7071      7102      7100      7097      7071      7102      7100      7101
      7071      7102      7103      7104      7071      7102      7103      7105
      7071      7102      7103      7106      7071      7102      7107      7108
      7071      7102      7107      7109      7071      7102      7107      7110
      7072      7071      7102      7100      7072      7071      7102      7103
      7072      7071      7102      7107      7072      7074      7077      7078
      7072      7074      7077      7079      7072      7074      7077      7100
      7073      7072      7071      7102      7073      7072      7074      7075
      7073      7072      7074      7076      7073      7072      7074      7077
      7074      7072      7071      7102      7074      7077      7079      7080
      7074      7077      7079      7081      7074      7077      7079      7089
      7074      7077      7100      7097      7074      7077      7100      7101
      7074      7077      7100      7102      7075      7074      7077      7078
      7075      7074      7077      7079      7075      7074      7077      7100
      7076      7074      7077      7078      7076      7074      7077      7079
      7076      7074      7077      7100      7077      7079      7081      7082
      7077      7079      7081      7083      7077      7079      7081      7084
      7077      7079      7089      7087      7077      7079      7089      7090
      7077      7079      7089      7094      7077      7100      7097      7094
      7077      7100      7097      7098      7077      7100      7097      7099
      7077      7100      7102      7103      7077      7100      7102      7107
      7078      7077      7079      7080      7078      7077      7079      7081
      7078      7077      7079      7089      7078      7077      7100      7097
      7078      7077      7100      7101      7078      7077      7100      7102
      7079      7077      7100      7097      7079      7077      7100      7101
      7079      7077      7100      7102      7079      7081      7084      7085
      7079      7081      7084      7086      7079      7081      7084      7087
      7079      7089      7087      7084      7079      7089      7087      7088
      7079      7089      7087      7113      7079      7089      7090      7091
      7079      7089      7090      7092      7079      7089      7090      7093
      7079      7089      7094      7095      7079      7089      7094      7096
      7079      7089      7094      7097      7080      7079      7077      7100
      7080      7079      7081      7082      7080      7079      7081      7083
      7080      7079      7081      7084      7080      7079      7089      7087
      7080      7079      7089      7090      7080      7079      7089      7094
      7081      7079      7077      7100      7081      7079      7089      7087
      7081      7079      7089      7090      7081      7079      7089      7094
      7081      7084      7087      7088      7081      7084      7087      7089
      7081      7084      7087      7113      7082      7081      7079      7089
      7082      7081      7084      7085      7082      7081      7084      7086
      7082      7081      7084      7087      7083      7081      7079      7089
      7083      7081      7084      7085      7083      7081      7084      7086
      7083      7081      7084      7087      7084      7081      7079      7089
      7084      7087      7089      7090      7084      7087      7089      7094
      7084      7087      7113      7114      7084      7087      7113      7115
      7084      7087      7113      7119      7085      7084      7087      7088
      7085      7084      7087      7089      7085      7084      7087      7113
      7086      7084      7087      7088      7086      7084      7087      7089
      7086      7084      7087      7113      7087      7089      7090      7091
      7087      7089      7090      7092      7087      7089      7090      7093
      7087      7089      7094      7095      7087      7089      7094      7096
      7087      7089      7094      7097      7087      7113      7115      7116
      7087      7113      7115      7117      7087      7113      7115      7118
      7087      7113      7119      7120      7087      7113      7119      7121
      7087      7113      7119      7122      7088      7087      7089      7090
      7088      7087      7089      7094      7088      7087      7113      7114
      7088      7087      7113      7115      7088      7087      7113      7119
      7089      7079      7077      7100      7089      7087      7113      7114
      7089      7087      7113      7115      7089      7087      7113      7119
      7089      7094      7097      7098      7089      7094      7097      7099
      7089      7094      7097      7100      7090      7089      7087      7113
      7090      7089      7094      7095      7090      7089      7094      7096
      7090      7089      7094      7097      7091      7090      7089      7094
      7092      7090      7089      7094      7093      7090      7089      7094
      7094      7089      7087      7113      7094      7097      7100      7101
      7094      7097      7100      7102      7095      7094      7097      7098
      7095      7094      7097      7099      7095      7094      7097      7100
      7096      7094      7097      7098      7096      7094      7097      7099
      7096      7094      7097      7100      7097      7100      7102      7103
      7097      7100      7102      7107      7098      7097      7100      7101
      7098      7097      7100      7102      7099      7097      7100      7101
      7099      7097      7100      7102      7100      7102      7103      7104
      7100      7102      7103      7105      7100      7102      7103      7106
      7100      7102      7107      7108      7100      7102      7107      7109
      7100      7102      7107      7110      7101      7100      7102      7103
      7101      7100      7102      7107      7102      7107      7110      7111
      7102      7107      7110      7112      7103      7102      7107      7108
      7103      7102      7107      7109      7103      7102      7107      7110
      7104      7103      7102      7107      7105      7103      7102      7107
      7106      7103      7102      7107      7108      7107      7110      7111
      7108      7107      7110      7112      7109      7107      7110      7111
      7109      7107      7110      7112      7113      7119      7122      7123
      7113      7119      7122      7124      7113      7119      7122      7125
      7114      7113      7115      7116      7114      7113      7115      7117
      7114      7113      7115      7118      7114      7113      7119      7120
      7114      7113      7119      7121      7114      7113      7119      7122
      7115      7113      7119      7120      7115      7113      7119      7121
      7115      7113      7119      7122      7116      7115      7113      7119
      7117      7115      7113      7119      7118      7115      7113      7119
      7119      7122      7125      7126      7119      7122      7125      7127
      7119      7122      7125      7128      7120      7119      7122      7123
      7120      7119      7122      7124      7120      7119      7122      7125
      7121      7119      7122      7123      7121      7119      7122      7124
      7121      7119      7122      7125      7122      7125      7128      7129
      7122      7125      7128      7130      7122      7125      7128      7134
      7123      7122      7125      7126      7123      7122      7125      7127
      7123      7122      7125      7128      7124      7122      7125      7126
      7124      7122      7125      7127      7124      7122      7125      7128
      7125      7128      7130      7131      7125      7128      7130      7132
      7125      7128      7130      7133      7125      7128      7134      7135
      7125      7128      7134      7136      7125      7128      7134      7137
      7126      7125      7128      7129      7126      7125      7128      7130
      7126      7125      7128      7134      7127      7125      7128      7129
      7127      7125      7128      7130      7127      7125      7128      7134
      7129      7128      7130      7131      7129      7128      7130      7132
      7129      7128      7130      7133      7129      7128      7134      7135
      7129      7128      7134      7136      7129      7128      7134      7137
      7130      7128      7134      7135      7130      7128      7134      7136
      7130      7128      7134      7137      7131      7130      7128      7134
      7132      7130      7128      7134      7133      7130      7128      7134
      7138      7151      7154      7155      7138      7151      7154      7156
      7138      7151      7154      7161      7139      7138      7143      7144
      7139      7138      7143      7145      7139      7138      7143      7146
      7139      7138      7147      7148      7139      7138      7147      7149
      7139      7138      7147      7150      7139      7138      7151      7152
      7139      7138      7151      7153      7139      7138      7151      7154
      7140      7139      7138      7143      7140      7139      7138      7147
      7140      7139      7138      7151      7141      7139      7138      7143
      7141      7139      7138      7147      7141      7139      7138      7151
      7142      7139      7138      7143      7142      7139      7138      7147
      7142      7139      7138      7151      7143      7138      7147      7148
      7143      7138      7147      7149      7143      7138      7147      7150
      7143      7138      7151      7152      7143      7138      7151      7153
      7143      7138      7151      7154      7144      7143      7138      7147
      7144      7143      7138      7151      7145      7143      7138      7147
      7145      7143      7138      7151      7146      7143      7138      7147
      7146      7143      7138      7151      7147      7138      7151      7152
      7147      7138      7151      7153      7147      7138      7151      7154
      7148      7147      7138      7151      7149      7147      7138      7151
      7150      7147      7138      7151      7151      7154      7161      7157
      7152      7151      7154      7155      7152      7151      7154      7156
      7152      7151      7154      7161      7153      7151      7154      7155
      7153      7151      7154      7156      7153      7151      7154      7161
      7154      7161      7157      7158      7154      7161      7157      7159
      7154      7161      7157      7160      7155      7154      7161      7157
      7156      7154      7161      7157      7157      7160      7162      7163
      7157      7160      7162      7164      7157      7160      7162      7167
      7158      7157      7160      7162      7159      7157      7160      7162
      7160      7162      7167      7165      7160      7162      7167      7168
      7160      7162      7167      7169      7161      7157      7160      7162
      7162      7167      7165      7166      7162      7167      7165      7217
      7162      7167      7169      7170      7162      7167      7169      7171
      7162      7167      7169      7173      7163      7162      7167      7165
      7163      7162      7167      7168      7163      7162      7167      7169
      7164      7162      7167      7165      7164      7162      7167      7168
      7164      7162      7167      7169      7165      7167      7169      7170
      7165      7167      7169      7171      7165      7167      7169      7173
      7165      7217      7219      7220      7165      7217      7219      7221
      7165      7217      7219      7222      7166      7165      7167      7168
      7166      7165      7167      7169      7166      7165      7217      7218
      7166      7165      7217      7219      7167      7165      7217      7218
      7167      7165      7217      7219      7167      7169      7171      7172
      7167      7169      7173      7174      7167      7169      7173      7175
      7168      7167      7165      7217      7168      7167      7169      7170
      7168      7167      7169      7171      7168      7167      7169      7173
      7169      7167      7165      7217      7169      7173      7175      7176
      7169      7173      7175      7177      7170      7169      7171      7172
      7170      7169      7173      7174      7170      7169      7173      7175
      7171      7169      7173      7174      7171      7169      7173      7175
      7172      7171      7169      7173      7173      7175      7177      7178
      7173      7175      7177      7179      7173      7175      7177      7180
      7174      7173      7175      7176      7174      7173      7175      7177
      7175      7177      7180      7181      7175      7177      7180      7182
      7175      7177      7180      7183      7176      7175      7177      7178
      7176      7175      7177      7179      7176      7175      7177      7180
      7177      7180      7183      7184      7177      7180      7183      7185
      7177      7180      7183      7186      7178      7177      7180      7181
      7178      7177      7180      7182      7178      7177      7180      7183
      7179      7177      7180      7181      7179      7177      7180      7182
      7179      7177      7180      7183      7180      7183      7186      7187
      7180      7183      7186      7188      7180      7183      7186      7189
      7181      7180      7183      7184      7181      7180      7183      7185
      7181      7180      7183      7186      7182      7180      7183      7184
      7182      7180      7183      7185      7182      7180      7183      7186
      7183      7186      7189      7190      7183      7186      7189      7191
      7183      7186      7189      7192      7184      7183      7186      7187
      7184      7183      7186      7188      7184      7183      7186      7189
      7185      7183      7186      7187      7185      7183      7186      7188
      7185      7183      7186      7189      7186      7189      7192      7193
      7186      7189      7192      7194      7186      7189      7192      7195
      7187      7186      7189      7190      7187      7186      7189      7191
      7187      7186      7189      7192      7188      7186      7189      7190
      7188      7186      7189      7191      7188      7186      7189      7192
      7189      7192      7195      7196      7189      7192      7195      7197
      7189      7192      7195      7198      7190      7189      7192      7193
      7190      7189      7192      7194      7190      7189      7192      7195
      7191      7189      7192      7193      7191      7189      7192      7194
      7191      7189      7192      7195      7192      7195      7198      7199
      7192      7195      7198      7200      7192      7195      7198      7201
      7193      7192      7195      7196      7193      7192      7195      7197
      7193      7192      7195      7198      7194      7192      7195      7196
      7194      7192      7195      7197      7194      7192      7195      7198
      7195      7198      7201      7202      7195      7198      7201      7203
      7195      7198      7201      7204      7196      7195      7198      7199
      7196      7195      7198      7200      7196      7195      7198      7201
      7197      7195      7198      7199      7197      7195      7198      7200
      7197      7195      7198      7201      7198      7201      7204      7205
      7198      7201      7204      7206      7198      7201      7204      7207
      7199      7198      7201      7202      7199      7198      7201      7203
      7199      7198      7201      7204      7200      7198      7201      7202
      7200      7198      7201      7203      7200      7198      7201      7204
      7201      7204      7207      7208      7201      7204      7207      7209
      7201      7204      7207      7210      7202      7201      7204      7205
      7202      7201      7204      7206      7202      7201      7204      7207
      7203      7201      7204      7205      7203      7201      7204      7206
      7203      7201      7204      7207      7204      7207      7210      7211
      7204      7207      7210      7212      7204      7207      7210      7213
      7205      7204      7207      7208      7205      7204      7207      7209
      7205      7204      7207      7210      7206      7204      7207      7208
      7206      7204      7207      7209      7206      7204      7207      7210
      7207      7210      7213      7214      7207      7210      7213      7215
      7207      7210      7213      7216      7208      7207      7210      7211
      7208      7207      7210      7212      7208      7207      7210      7213
      7209      7207      7210      7211      7209      7207      7210      7212
      7209      7207      7210      7213      7211      7210      7213      7214
      7211      7210      7213      7215      7211      7210      7213      7216
      7212      7210      7213      7214      7212      7210      7213      7215
      7212      7210      7213      7216      7217      7219      7222      7223
      7217      7219      7222      7224      7217      7219      7222      7225
      7218      7217      7219      7220      7218      7217      7219      7221
      7218      7217      7219      7222      7219      7222      7225      7226
      7219      7222      7225      7227      7219      7222      7225      7228
      7220      7219      7222      7223      7220      7219      7222      7224
      7220      7219      7222      7225      7221      7219      7222      7223
      7221      7219      7222      7224      7221      7219      7222      7225
      7222      7225      7228      7229      7222      7225      7228      7230
      7222      7225      7228      7231      7223      7222      7225      7226
      7223      7222      7225      7227      7223      7222      7225      7228
      7224      7222      7225      7226      7224      7222      7225      7227
      7224      7222      7225      7228      7225      7228      7231      7232
      7225      7228      7231      7233      7225      7228      7231      7234
      7226      7225      7228      7229      7226      7225      7228      7230
      7226      7225      7228      7231      7227      7225      7228      7229
      7227      7225      7228      7230      7227      7225      7228      7231
      7228      7231      7234      7235      7228      7231      7234      7236
      7228      7231      7234      7237      7229      7228      7231      7232
      7229      7228      7231      7233      7229      7228      7231      7234
      7230      7228      7231      7232      7230      7228      7231      7233
      7230      7228      7231      7234      7231      7234      7237      7238
      7231      7234      7237      7239      7231      7234      7237      7240
      7232      7231      7234      7235      7232      7231      7234      7236
      7232      7231      7234      7237      7233      7231      7234      7235
      7233      7231      7234      7236      7233      7231      7234      7237
      7234      7237      7240      7241      7234      7237      7240      7242
      7235      7234      7237      7238      7235      7234      7237      7239
      7235      7234      7237      7240      7236      7234      7237      7238
      7236      7234      7237      7239      7236      7234      7237      7240
      7237      7240      7242      7243      7237      7240      7242      7244
      7238      7237      7240      7241      7238      7237      7240      7242
      7239      7237      7240      7241      7239      7237      7240      7242
      7240      7242      7244      7245      7240      7242      7244      7246
      7240      7242      7244      7247      7241      7240      7242      7243
      7241      7240      7242      7244      7242      7244      7247      7248
      7242      7244      7247      7249      7242      7244      7247      7250
      7243      7242      7244      7245      7243      7242      7244      7246
      7243      7242      7244      7247      7244      7247      7250      7251
      7244      7247      7250      7252      7244      7247      7250      7253
      7245      7244      7247      7248      7245      7244      7247      7249
      7245      7244      7247      7250      7246      7244      7247      7248
      7246      7244      7247      7249      7246      7244      7247      7250
      7247      7250      7253      7254      7247      7250      7253      7255
      7247      7250      7253      7256      7248      7247      7250      7251
      7248      7247      7250      7252      7248      7247      7250      7253
      7249      7247      7250      7251      7249      7247      7250      7252
      7249      7247      7250      7253      7250      7253      7256      7257
      7250      7253      7256      7258      7250      7253      7256      7259
      7251      7250      7253      7254      7251      7250      7253      7255
      7251      7250      7253      7256      7252      7250      7253      7254
      7252      7250      7253      7255      7252      7250      7253      7256
      7253      7256      7259      7260      7253      7256      7259      7261
      7253      7256      7259      7262      7254      7253      7256      7257
      7254      7253      7256      7258      7254      7253      7256      7259
      7255      7253      7256      7257      7255      7253      7256      7258
      7255      7253      7256      7259      7256      7259      7262      7263
      7256      7259      7262      7264      7256      7259      7262      7265
      7257      7256      7259      7260      7257      7256      7259      7261
      7257      7256      7259      7262      7258      7256      7259      7260
      7258      7256      7259      7261      7258      7256      7259      7262
      7259      7262      7265      7266      7259      7262      7265      7267
      7259      7262      7265      7268      7260      7259      7262      7263
      7260      7259      7262      7264      7260      7259      7262      7265
      7261      7259      7262      7263      7261      7259      7262      7264
      7261      7259      7262      7265      7263      7262      7265      7266
      7263      7262      7265      7267      7263      7262      7265      7268
      7264      7262      7265      7266      7264      7262      7265      7267
      7264      7262      7265      7268      7269      7273      7275      7276
      7269      7273      7275      7277      7269      7273      7278      7279
      7269      7273      7278      7280      7269      7273      7278      7284
      7270      7269      7273      7274      7270      7269      7273      7275
      7270      7269      7273      7278      7271      7269      7273      7274
      7271      7269      7273      7275      7271      7269      7273      7278
      7272      7269      7273      7274      7272      7269      7273      7275
      7272      7269      7273      7278      7273      7278      7284      7281
      7274      7273      7275      7276      7274      7273      7275      7277
      7274      7273      7278      7279      7274      7273      7278      7280
      7274      7273      7278      7284      7275      7273      7278      7279
      7275      7273      7278      7280      7275      7273      7278      7284
      7276      7275      7273      7278      7277      7275      7273      7278
      7278      7284      7281      7282      7278      7284      7281      7283
      7278      7284      7281      7285      7279      7278      7284      7281
      7280      7278      7284      7281      7281      7285      7286      7287
      7281      7285      7286      7288      7281      7285      7286      7289
      7282      7281      7285      7286      7283      7281      7285      7286
      7284      7281      7285      7286      7285      7286      7289      7290
      7285      7286      7289      7291      7285      7286      7289      7297
      7286      7289      7291      7292      7286      7289      7297      7298
      7286      7289      7297      7299      7286      7289      7297      7300
      7287      7286      7289      7290      7287      7286      7289      7291
      7287      7286      7289      7297      7288      7286      7289      7290
      7288      7286      7289      7291      7288      7286      7289      7297
      7289      7291      7292      7293      7289      7291      7292      7294
      7289      7297      7300      7301      7290      7289      7291      7292
      7290      7289      7297      7298      7290      7289      7297      7299
      7290      7289      7297      7300      7291      7289      7297      7298
      7291      7289      7297      7299      7291      7289      7297      7300
      7291      7292      7294      7295      7291      7292      7294      7296
      7291      7292      7294      7306      7292      7291      7289      7297
      7292      7294      7306      7307      7292      7294      7306      7308
      7292      7294      7306      7309      7293      7292      7294      7295
      7293      7292      7294      7296      7293      7292      7294      7306
      7294      7306      7309      7310      7294      7306      7309      7311
      7294      7306      7309      7312      7295      7294      7306      7307
      7295      7294      7306      7308      7295      7294      7306      7309
      7296      7294      7306      7307      7296      7294      7306      7308
      7296      7294      7306      7309      7297      7300      7301      7302
      7297      7300      7301      7303      7298      7297      7300      7301
      7299      7297      7300      7301      7300      7301      7303      7304
      7300      7301      7303      7305      7300      7301      7303      7353
      7301      7303      7353      7354      7301      7303      7353      7355
      7301      7303      7353      7356      7302      7301      7303      7304
      7302      7301      7303      7305      7302      7301      7303      7353
      7303      7353      7356      7357      7303      7353      7356      7358
      7303      7353      7356      7359      7304      7303      7353      7354
      7304      7303      7353      7355      7304      7303      7353      7356
      7305      7303      7353      7354      7305      7303      7353      7355
      7305      7303      7353      7356      7306      7309      7312      7313
      7306      7309      7312      7314      7307      7306      7309      7310
      7307      7306      7309      7311      7307      7306      7309      7312
      7308      7306      7309      7310      7308      7306      7309      7311
      7308      7306      7309      7312      7309      7312      7314      7315
      7309      7312      7314      7316      7310      7309      7312      7313
      7310      7309      7312      7314      7311      7309      7312      7313
      7311      7309      7312      7314      7312      7314      7316      7317
      7312      7314      7316      7318      7312      7314      7316      7319
      7313      7312      7314      7315      7313      7312      7314      7316
      7314      7316      7319      7320      7314      7316      7319      7321
      7315      7314      7316      7317      7315      7314      7316      7318
      7315      7314      7316      7319      7316      7319      7321      7322
      7316      7319      7321      7323      7317      7316      7319      7320
      7317      7316      7319      7321      7318      7316      7319      7320
      7318      7316      7319      7321      7319      7321      7323      7324
      7319      7321      7323      7325      7319      7321      7323      7326
      7320      7319      7321      7322      7320      7319      7321      7323
      7321      7323      7326      7327      7321      7323      7326      7328
      7322      7321      7323      7324      7322      7321      7323      7325
      7322      7321      7323      7326      7323      7326      7328      7329
      7323      7326      7328      7330      7324      7323      7326      7327
      7324      7323      7326      7328      7325      7323      7326      7327
      7325      7323      7326      7328      7326      7328      7330      7331
      7326      7328      7330      7332      7326      7328      7330      7333
      7327      7326      7328      7329      7327      7326      7328      7330
      7328      7330      7333      7334      7328      7330      7333      7335
      7329      7328      7330      7331      7329      7328      7330      7332
      7329      7328      7330      7333      7330      7333      7335      7336
      7330      7333      7335      7337      7331      7330      7333      7334
      7331      7330      7333      7335      7332      7330      7333      7334
      7332      7330      7333      7335      7333      7335      7337      7338
      7333      7335      7337      7339      7333      7335      7337      7340
      7334      7333      7335      7336      7334      7333      7335      7337
      7335      7337      7340      7341      7335      7337      7340      7342
      7335      7337      7340      7343      7336      7335      7337      7338
      7336      7335      7337      7339      7336      7335      7337      7340
      7337      7340      7343      7344      7337      7340      7343      7345
      7337      7340      7343      7346      7338      7337      7340      7341
      7338      7337      7340      7342      7338      7337      7340      7343
      7339      7337      7340      7341      7339      7337      7340      7342
      7339      7337      7340      7343      7340      7343      7346      7347
      7340      7343      7346      7348      7340      7343      7346      7349
      7341      7340      7343      7344      7341      7340      7343      7345
      7341      7340      7343      7346      7342      7340      7343      7344
      7342      7340      7343      7345      7342      7340      7343      7346
      7343      7346      7349      7350      7343      7346      7349      7351
      7343      7346      7349      7352      7344      7343      7346      7347
      7344      7343      7346      7348      7344      7343      7346      7349
      7345      7343      7346      7347      7345      7343      7346      7348
      7345      7343      7346      7349      7347      7346      7349      7350
      7347      7346      7349      7351      7347      7346      7349      7352
      7348      7346      7349      7350      7348      7346      7349      7351
      7348      7346      7349      7352      7353      7356      7359      7360
      7353      7356      7359      7361      7353      7356      7359      7362
      7354      7353      7356      7357      7354      7353      7356      7358
      7354      7353      7356      7359      7355      7353      7356      7357
      7355      7353      7356      7358      7355      7353      7356      7359
      7356      7359      7362      7363      7356      7359      7362      7364
      7356      7359      7362      7365      7357      7356      7359      7360
      7357      7356      7359      7361      7357      7356      7359      7362
      7358      7356      7359      7360      7358      7356      7359      7361
      7358      7356      7359      7362      7359      7362      7365      7366
      7359      7362      7365      7367      7359      7362      7365      7368
      7360      7359      7362      7363      7360      7359      7362      7364
      7360      7359      7362      7365      7361      7359      7362      7363
      7361      7359      7362      7364      7361      7359      7362      7365
      7362      7365      7368      7369      7362      7365      7368      7370
      7362      7365      7368      7371      7363      7362      7365      7366
      7363      7362      7365      7367      7363      7362      7365      7368
      7364      7362      7365      7366      7364      7362      7365      7367
      7364      7362      7365      7368      7365      7368      7371      7372
      7365      7368      7371      7373      7365      7368      7371      7374
      7366      7365      7368      7369      7366      7365      7368      7370
      7366      7365      7368      7371      7367      7365      7368      7369
      7367      7365      7368      7370      7367      7365      7368      7371
      7368      7371      7374      7375      7368      7371      7374      7376
      7368      7371      7374      7377      7369      7368      7371      7372
      7369      7368      7371      7373      7369      7368      7371      7374
      7370      7368      7371      7372      7370      7368      7371      7373
      7370      7368      7371      7374      7371      7374      7377      7378
      7371      7374      7377      7379      7371      7374      7377      7380
      7372      7371      7374      7375      7372      7371      7374      7376
      7372      7371      7374      7377      7373      7371      7374      7375
      7373      7371      7374      7376      7373      7371      7374      7377
      7374      7377      7380      7381      7374      7377      7380      7382
      7374      7377      7380      7383      7375      7374      7377      7378
      7375      7374      7377      7379      7375      7374      7377      7380
      7376      7374      7377      7378      7376      7374      7377      7379
      7376      7374      7377      7380      7377      7380      7383      7384
      7377      7380      7383      7385      7377      7380      7383      7386
      7378      7377      7380      7381      7378      7377      7380      7382
      7378      7377      7380      7383      7379      7377      7380      7381
      7379      7377      7380      7382      7379      7377      7380      7383
      7380      7383      7386      7387      7380      7383      7386      7388
      7380      7383      7386      7389      7381      7380      7383      7384
      7381      7380      7383      7385      7381      7380      7383      7386
      7382      7380      7383      7384      7382      7380      7383      7385
      7382      7380      7383      7386      7383      7386      7389      7390
      7383      7386      7389      7391      7383      7386      7389      7392
      7384      7383      7386      7387      7384      7383      7386      7388
      7384      7383      7386      7389      7385      7383      7386      7387
      7385      7383      7386      7388      7385      7383      7386      7389
      7386      7389      7392      7393      7386      7389      7392      7394
      7386      7389      7392      7395      7387      7386      7389      7390
      7387      7386      7389      7391      7387      7386      7389      7392
      7388      7386      7389      7390      7388      7386      7389      7391
      7388      7386      7389      7392      7389      7392      7395      7396
      7389      7392      7395      7397      7389      7392      7395      7398
      7390      7389      7392      7393      7390      7389      7392      7394
      7390      7389      7392      7395      7391      7389      7392      7393
      7391      7389      7392      7394      7391      7389      7392      7395
      7392      7395      7398      7399      7392      7395      7398      7400
      7392      7395      7398      7401      7393      7392      7395      7396
      7393      7392      7395      7397      7393      7392      7395      7398
      7394      7392      7395      7396      7394      7392      7395      7397
      7394      7392      7395      7398      7396      7395      7398      7399
      7396      7395      7398      7400      7396      7395      7398      7401
      7397      7395      7398      7399      7397      7395      7398      7400
      7397      7395      7398      7401      7402      7406      7409      7410
      7402      7406      7409      7411      7402      7406      7409      7415
      7403      7402      7406      7407      7403      7402      7406      7408
      7403      7402      7406      7409      7404      7402      7406      7407
      7404      7402      7406      7408      7404      7402      7406      7409
      7405      7402      7406      7407      7405      7402      7406      7408
      7405      7402      7406      7409      7406      7409      7415      7412
      7407      7406      7409      7410      7407      7406      7409      7411
      7407      7406      7409      7415      7408      7406      7409      7410
      7408      7406      7409      7411      7408      7406      7409      7415
      7409      7415      7412      7413      7409      7415      7412      7414
      7409      7415      7412      7416      7410      7409      7415      7412
      7411      7409      7415      7412      7412      7416      7417      7418
      7412      7416      7417      7419      7412      7416      7417      7420
      7413      7412      7416      7417      7414      7412      7416      7417
      7415      7412      7416      7417      7416      7417      7420      7421
      7416      7417      7420      7422      7416      7417      7420      7428
      7417      7420      7422      7423      7417      7420      7428      7429
      7417      7420      7428      7430      7417      7420      7428      7431
      7418      7417      7420      7421      7418      7417      7420      7422
      7418      7417      7420      7428      7419      7417      7420      7421
      7419      7417      7420      7422      7419      7417      7420      7428
      7420      7422      7423      7424      7420      7422      7423      7425
      7420      7428      7431      7432      7421      7420      7422      7423
      7421      7420      7428      7429      7421      7420      7428      7430
      7421      7420      7428      7431      7422      7420      7428      7429
      7422      7420      7428      7430      7422      7420      7428      7431
      7422      7423      7425      7426      7422      7423      7425      7427
      7422      7423      7425      7437      7423      7422      7420      7428
      7423      7425      7437      7438      7423      7425      7437      7439
      7423      7425      7437      7440      7424      7423      7425      7426
      7424      7423      7425      7427      7424      7423      7425      7437
      7425      7437      7440      7441      7425      7437      7440      7442
      7425      7437      7440      7443      7426      7425      7437      7438
      7426      7425      7437      7439      7426      7425      7437      7440
      7427      7425      7437      7438      7427      7425      7437      7439
      7427      7425      7437      7440      7428      7431      7432      7433
      7428      7431      7432      7434      7429      7428      7431      7432
      7430      7428      7431      7432      7431      7432      7434      7435
      7431      7432      7434      7436      7431      7432      7434      7484
      7432      7434      7484      7485      7432      7434      7484      7486
      7432      7434      7484      7487      7433      7432      7434      7435
      7433      7432      7434      7436      7433      7432      7434      7484
      7434      7484      7487      7488      7434      7484      7487      7489
      7434      7484      7487      7490      7435      7434      7484      7485
      7435      7434      7484      7486      7435      7434      7484      7487
      7436      7434      7484      7485      7436      7434      7484      7486
      7436      7434      7484      7487      7437      7440      7443      7444
      7437      7440      7443      7445      7438      7437      7440      7441
      7438      7437      7440      7442      7438      7437      7440      7443
      7439      7437      7440      7441      7439      7437      7440      7442
      7439      7437      7440      7443      7440      7443      7445      7446
      7440      7443      7445      7447      7441      7440      7443      7444
      7441      7440      7443      7445      7442      7440      7443      7444
      7442      7440      7443      7445      7443      7445      7447      7448
      7443      7445      7447      7449      7443      7445      7447      7450
      7444      7443      7445      7446      7444      7443      7445      7447
      7445      7447      7450      7451      7445      7447      7450      7452
      7446      7445      7447      7448      7446      7445      7447      7449
      7446      7445      7447      7450      7447      7450      7452      7453
      7447      7450      7452      7454      7448      7447      7450      7451
      7448      7447      7450      7452      7449      7447      7450      7451
      7449      7447      7450      7452      7450      7452      7454      7455
      7450      7452      7454      7456      7450      7452      7454      7457
      7451      7450      7452      7453      7451      7450      7452      7454
      7452      7454      7457      7458      7452      7454      7457      7459
      7453      7452      7454      7455      7453      7452      7454      7456
      7453      7452      7454      7457      7454      7457      7459      7460
      7454      7457      7459      7461      7455      7454      7457      7458
      7455      7454      7457      7459      7456      7454      7457      7458
      7456      7454      7457      7459      7457      7459      7461      7462
      7457      7459      7461      7463      7457      7459      7461      7464
      7458      7457      7459      7460      7458      7457      7459      7461
      7459      7461      7464      7465      7459      7461      7464      7466
      7460      7459      7461      7462      7460      7459      7461      7463
      7460      7459      7461      7464      7461      7464      7466      7467
      7461      7464      7466      7468      7462      7461      7464      7465
      7462      7461      7464      7466      7463      7461      7464      7465
      7463      7461      7464      7466      7464      7466      7468      7469
      7464      7466      7468      7470      7464      7466      7468      7471
      7465      7464      7466      7467      7465      7464      7466      7468
      7466      7468      7471      7472      7466      7468      7471      7473
      7466      7468      7471      7474      7467      7466      7468      7469
      7467      7466      7468      7470      7467      7466      7468      7471
      7468      7471      7474      7475      7468      7471      7474      7476
      7468      7471      7474      7477      7469      7468      7471      7472
      7469      7468      7471      7473      7469      7468      7471      7474
      7470      7468      7471      7472      7470      7468      7471      7473
      7470      7468      7471      7474      7471      7474      7477      7478
      7471      7474      7477      7479      7471      7474      7477      7480
      7472      7471      7474      7475      7472      7471      7474      7476
      7472      7471      7474      7477      7473      7471      7474      7475
      7473      7471      7474      7476      7473      7471      7474      7477
      7474      7477      7480      7481      7474      7477      7480      7482
      7474      7477      7480      7483      7475      7474      7477      7478
      7475      7474      7477      7479      7475      7474      7477      7480
      7476      7474      7477      7478      7476      7474      7477      7479
      7476      7474      7477      7480      7478      7477      7480      7481
      7478      7477      7480      7482      7478      7477      7480      7483
      7479      7477      7480      7481      7479      7477      7480      7482
      7479      7477      7480      7483      7484      7487      7490      7491
      7484      7487      7490      7492      7484      7487      7490      7493
      7485      7484      7487      7488      7485      7484      7487      7489
      7485      7484      7487      7490      7486      7484      7487      7488
      7486      7484      7487      7489      7486      7484      7487      7490
      7487      7490      7493      7494      7487      7490      7493      7495
      7487      7490      7493      7496      7488      7487      7490      7491
      7488      7487      7490      7492      7488      7487      7490      7493
      7489      7487      7490      7491      7489      7487      7490      7492
      7489      7487      7490      7493      7490      7493      7496      7497
      7490      7493      7496      7498      7490      7493      7496      7499
      7491      7490      7493      7494      7491      7490      7493      7495
      7491      7490      7493      7496      7492      7490      7493      7494
      7492      7490      7493      7495      7492      7490      7493      7496
      7493      7496      7499      7500      7493      7496      7499      7501
      7493      7496      7499      7502      7494      7493      7496      7497
      7494      7493      7496      7498      7494      7493      7496      7499
      7495      7493      7496      7497      7495      7493      7496      7498
      7495      7493      7496      7499      7496      7499      7502      7503
      7496      7499      7502      7504      7496      7499      7502      7505
      7497      7496      7499      7500      7497      7496      7499      7501
      7497      7496      7499      7502      7498      7496      7499      7500
      7498      7496      7499      7501      7498      7496      7499      7502
      7499      7502      7505      7506      7499      7502      7505      7507
      7499      7502      7505      7508      7500      7499      7502      7503
      7500      7499      7502      7504      7500      7499      7502      7505
      7501      7499      7502      7503      7501      7499      7502      7504
      7501      7499      7502      7505      7502      7505      7508      7509
      7502      7505      7508      7510      7502      7505      7508      7511
      7503      7502      7505      7506      7503      7502      7505      7507
      7503      7502      7505      7508      7504      7502      7505      7506
      7504      7502      7505      7507      7504      7502      7505      7508
      7505      7508      7511      7512      7505      7508      7511      7513
      7505      7508      7511      7514      7506      7505      7508      7509
      7506      7505      7508      7510      7506      7505      7508      7511
      7507      7505      7508      7509      7507      7505      7508      7510
      7507      7505      7508      7511      7508      7511      7514      7515
      7508      7511      7514      7516      7508      7511      7514      7517
      7509      7508      7511      7512      7509      7508      7511      7513
      7509      7508      7511      7514      7510      7508      7511      7512
      7510      7508      7511      7513      7510      7508      7511      7514
      7511      7514      7517      7518      7511      7514      7517      7519
      7511      7514      7517      7520      7512      7511      7514      7515
      7512      7511      7514      7516      7512      7511      7514      7517
      7513      7511      7514      7515      7513      7511      7514      7516
      7513      7511      7514      7517      7514      7517      7520      7521
      7514      7517      7520      7522      7514      7517      7520      7523
      7515      7514      7517      7518      7515      7514      7517      7519
      7515      7514      7517      7520      7516      7514      7517      7518
      7516      7514      7517      7519      7516      7514      7517      7520
      7517      7520      7523      7524      7517      7520      7523      7525
      7517      7520      7523      7526      7518      7517      7520      7521
      7518      7517      7520      7522      7518      7517      7520      7523
      7519      7517      7520      7521      7519      7517      7520      7522
      7519      7517      7520      7523      7520      7523      7526      7527
      7520      7523      7526      7528      7520      7523      7526      7529
      7521      7520      7523      7524      7521      7520      7523      7525
      7521      7520      7523      7526      7522      7520      7523      7524
      7522      7520      7523      7525      7522      7520      7523      7526
      7523      7526      7529      7530      7523      7526      7529      7531
      7523      7526      7529      7532      7524      7523      7526      7527
      7524      7523      7526      7528      7524      7523      7526      7529
      7525      7523      7526      7527      7525      7523      7526      7528
      7525      7523      7526      7529      7527      7526      7529      7530
      7527      7526      7529      7531      7527      7526      7529      7532
      7528      7526      7529      7530      7528      7526      7529      7531
      7528      7526      7529      7532      7533      7534      7549      7550
      7533      7534      7549      7551      7533      7534      7549      7555
      7534      7533      7537      7538      7534      7533      7537      7539
      7534      7533      7537      7540      7534      7533      7541      7542
      7534      7533      7541      7543      7534      7533      7541      7544
      7534      7533      7545      7546      7534      7533      7545      7547
      7534      7533      7545      7548      7534      7549      7555      7552
      7535      7534      7533      7537      7535      7534      7533      7541
      7535      7534      7533      7545      7535      7534      7549      7550
      7535      7534      7549      7551      7535      7534      7549      7555
      7536      7534      7533      7537      7536      7534      7533      7541
      7536      7534      7533      7545      7536      7534      7549      7550
      7536      7534      7549      7551      7536      7534      7549      7555
      7537      7533      7534      7549      7537      7533      7541      7542
      7537      7533      7541      7543      7537      7533      7541      7544
      7537      7533      7545      7546      7537      7533      7545      7547
      7537      7533      7545      7548      7538      7537      7533      7541
      7538      7537      7533      7545      7539      7537      7533      7541
      7539      7537      7533      7545      7540      7537      7533      7541
      7540      7537      7533      7545      7541      7533      7534      7549
      7541      7533      7545      7546      7541      7533      7545      7547
      7541      7533      7545      7548      7542      7541      7533      7545
      7543      7541      7533      7545      7544      7541      7533      7545
      7545      7533      7534      7549      7549      7555      7552      7553
      7549      7555      7552      7554      7549      7555      7552      7556
      7550      7549      7555      7552      7551      7549      7555      7552
      7552      7556      7557      7558      7552      7556      7557      7559
      7552      7556      7557      7560      7553      7552      7556      7557
      7554      7552      7556      7557      7555      7552      7556      7557
      7556      7557      7560      7561      7556      7557      7560      7562
      7556      7557      7560      7568      7557      7560      7562      7563
      7557      7560      7568      7569      7557      7560      7568      7570
      7557      7560      7568      7571      7558      7557      7560      7561
      7558      7557      7560      7562      7558      7557      7560      7568
      7559      7557      7560      7561      7559      7557      7560      7562
      7559      7557      7560      7568      7560      7562      7563      7564
      7560      7562      7563      7565      7560      7568      7571      7572
      7561      7560      7562      7563      7561      7560      7568      7569
      7561      7560      7568      7570      7561      7560      7568      7571
      7562      7560      7568      7569      7562      7560      7568      7570
      7562      7560      7568      7571      7562      7563      7565      7566
      7562      7563      7565      7567      7562      7563      7565      7577
      7563      7562      7560      7568      7563      7565      7577      7578
      7563      7565      7577      7579      7563      7565      7577      7580
      7564      7563      7565      7566      7564      7563      7565      7567
      7564      7563      7565      7577      7565      7577      7580      7581
      7565      7577      7580      7582      7565      7577      7580      7583
      7566      7565      7577      7578      7566      7565      7577      7579
      7566      7565      7577      7580      7567      7565      7577      7578
      7567      7565      7577      7579      7567      7565      7577      7580
      7568      7571      7572      7573      7568      7571      7572      7574
      7569      7568      7571      7572      7570      7568      7571      7572
      7571      7572      7574      7575      7571      7572      7574      7576
      7571      7572      7574      7624      7572      7574      7624      7625
      7572      7574      7624      7626      7572      7574      7624      7627
      7573      7572      7574      7575      7573      7572      7574      7576
      7573      7572      7574      7624      7574      7624      7627      7628
      7574      7624      7627      7629      7574      7624      7627      7630
      7575      7574      7624      7625      7575      7574      7624      7626
      7575      7574      7624      7627      7576      7574      7624      7625
      7576      7574      7624      7626      7576      7574      7624      7627
      7577      7580      7583      7584      7577      7580      7583      7585
      7577      7580      7583      7586      7578      7577      7580      7581
      7578      7577      7580      7582      7578      7577      7580      7583
      7579      7577      7580      7581      7579      7577      7580      7582
      7579      7577      7580      7583      7580      7583      7586      7587
      7580      7583      7586      7588      7580      7583      7586      7589
      7581      7580      7583      7584      7581      7580      7583      7585
      7581      7580      7583      7586      7582      7580      7583      7584
      7582      7580      7583      7585      7582      7580      7583      7586
      7583      7586      7589      7590      7583      7586      7589      7591
      7583      7586      7589      7592      7584      7583      7586      7587
      7584      7583      7586      7588      7584      7583      7586      7589
      7585      7583      7586      7587      7585      7583      7586      7588
      7585      7583      7586      7589      7586      7589      7592      7593
      7586      7589      7592      7594      7586      7589      7592      7595
      7587      7586      7589      7590      7587      7586      7589      7591
      7587      7586      7589      7592      7588      7586      7589      7590
      7588      7586      7589      7591      7588      7586      7589      7592
      7589      7592      7595      7596      7589      7592      7595      7597
      7590      7589      7592      7593      7590      7589      7592      7594
      7590      7589      7592      7595      7591      7589      7592      7593
      7591      7589      7592      7594      7591      7589      7592      7595
      7592      7595      7597      7598      7592      7595      7597      7599
      7593      7592      7595      7596      7593      7592      7595      7597
      7594      7592      7595      7596      7594      7592      7595      7597
      7595      7597      7599      7600      7595      7597      7599      7601
      7595      7597      7599      7602      7596      7595      7597      7598
      7596      7595      7597      7599      7597      7599      7602      7603
      7597      7599      7602      7604      7597      7599      7602      7605
      7598      7597      7599      7600      7598      7597      7599      7601
      7598      7597      7599      7602      7599      7602      7605      7606
      7599      7602      7605      7607      7599      7602      7605      7608
      7600      7599      7602      7603      7600      7599      7602      7604
      7600      7599      7602      7605      7601      7599      7602      7603
      7601      7599      7602      7604      7601      7599      7602      7605
      7602      7605      7608      7609      7602      7605      7608      7610
      7602      7605      7608      7611      7603      7602      7605      7606
      7603      7602      7605      7607      7603      7602      7605      7608
      7604      7602      7605      7606      7604      7602      7605      7607
      7604      7602      7605      7608      7605      7608      7611      7612
      7605      7608      7611      7613      7605      7608      7611      7614
      7606      7605      7608      7609      7606      7605      7608      7610
      7606      7605      7608      7611      7607      7605      7608      7609
      7607      7605      7608      7610      7607      7605      7608      7611
      7608      7611      7614      7615      7608      7611      7614      7616
      7608      7611      7614      7617      7609      7608      7611      7612
      7609      7608      7611      7613      7609      7608      7611      7614
      7610      7608      7611      7612      7610      7608      7611      7613
      7610      7608      7611      7614      7611      7614      7617      7618
      7611      7614      7617      7619      7611      7614      7617      7620
      7612      7611      7614      7615      7612      7611      7614      7616
      7612      7611      7614      7617      7613      7611      7614      7615
      7613      7611      7614      7616      7613      7611      7614      7617
      7614      7617      7620      7621      7614      7617      7620      7622
      7614      7617      7620      7623      7615      7614      7617      7618
      7615      7614      7617      7619      7615      7614      7617      7620
      7616      7614      7617      7618      7616      7614      7617      7619
      7616      7614      7617      7620      7618      7617      7620      7621
      7618      7617      7620      7622      7618      7617      7620      7623
      7619      7617      7620      7621      7619      7617      7620      7622
      7619      7617      7620      7623      7624      7627      7630      7631
      7624      7627      7630      7632      7624      7627      7630      7633
      7625      7624      7627      7628      7625      7624      7627      7629
      7625      7624      7627      7630      7626      7624      7627      7628
      7626      7624      7627      7629      7626      7624      7627      7630
      7627      7630      7633      7634      7627      7630      7633      7635
      7627      7630      7633      7636      7628      7627      7630      7631
      7628      7627      7630      7632      7628      7627      7630      7633
      7629      7627      7630      7631      7629      7627      7630      7632
      7629      7627      7630      7633      7630      7633      7636      7637
      7630      7633      7636      7638      7630      7633      7636      7639
      7631      7630      7633      7634      7631      7630      7633      7635
      7631      7630      7633      7636      7632      7630      7633      7634
      7632      7630      7633      7635      7632      7630      7633      7636
      7633      7636      7639      7640      7633      7636      7639      7641
      7633      7636      7639      7642      7634      7633      7636      7637
      7634      7633      7636      7638      7634      7633      7636      7639
      7635      7633      7636      7637      7635      7633      7636      7638
      7635      7633      7636      7639      7636      7639      7642      7643
      7636      7639      7642      7644      7636      7639      7642      7645
      7637      7636      7639      7640      7637      7636      7639      7641
      7637      7636      7639      7642      7638      7636      7639      7640
      7638      7636      7639      7641      7638      7636      7639      7642
      7639      7642      7645      7646      7639      7642      7645      7647
      7639      7642      7645      7648      7640      7639      7642      7643
      7640      7639      7642      7644      7640      7639      7642      7645
      7641      7639      7642      7643      7641      7639      7642      7644
      7641      7639      7642      7645      7642      7645      7648      7649
      7642      7645      7648      7650      7642      7645      7648      7651
      7643      7642      7645      7646      7643      7642      7645      7647
      7643      7642      7645      7648      7644      7642      7645      7646
      7644      7642      7645      7647      7644      7642      7645      7648
      7645      7648      7651      7652      7645      7648      7651      7653
      7645      7648      7651      7654      7646      7645      7648      7649
      7646      7645      7648      7650      7646      7645      7648      7651
      7647      7645      7648      7649      7647      7645      7648      7650
      7647      7645      7648      7651      7648      7651      7654      7655
      7648      7651      7654      7656      7648      7651      7654      7657
      7649      7648      7651      7652      7649      7648      7651      7653
      7649      7648      7651      7654      7650      7648      7651      7652
      7650      7648      7651      7653      7650      7648      7651      7654
      7651      7654      7657      7658      7651      7654      7657      7659
      7651      7654      7657      7660      7652      7651      7654      7655
      7652      7651      7654      7656      7652      7651      7654      7657
      7653      7651      7654      7655      7653      7651      7654      7656
      7653      7651      7654      7657      7654      7657      7660      7661
      7654      7657      7660      7662      7654      7657      7660      7663
      7655      7654      7657      7658      7655      7654      7657      7659
      7655      7654      7657      7660      7656      7654      7657      7658
      7656      7654      7657      7659      7656      7654      7657      7660
      7657      7660      7663      7664      7657      7660      7663      7665
      7657      7660      7663      7666      7658      7657      7660      7661
      7658      7657      7660      7662      7658      7657      7660      7663
      7659      7657      7660      7661      7659      7657      7660      7662
      7659      7657      7660      7663      7661      7660      7663      7664
      7661      7660      7663      7665      7661      7660      7663      7666
      7662      7660      7663      7664      7662      7660      7663      7665
      7662      7660      7663      7666      7667      7680      7683      7684
      7667      7680      7683      7685      7667      7680      7683      7690
      7668      7667      7672      7673      7668      7667      7672      7674
      7668      7667      7672      7675      7668      7667      7676      7677
      7668      7667      7676      7678      7668      7667      7676      7679
      7668      7667      7680      7681      7668      7667      7680      7682
      7668      7667      7680      7683      7669      7668      7667      7672
      7669      7668      7667      7676      7669      7668      7667      7680
      7670      7668      7667      7672      7670      7668      7667      7676
      7670      7668      7667      7680      7671      7668      7667      7672
      7671      7668      7667      7676      7671      7668      7667      7680
      7672      7667      7676      7677      7672      7667      7676      7678
      7672      7667      7676      7679      7672      7667      7680      7681
      7672      7667      7680      7682      7672      7667      7680      7683
      7673      7672      7667      7676      7673      7672      7667      7680
      7674      7672      7667      7676      7674      7672      7667      7680
      7675      7672      7667      7676      7675      7672      7667      7680
      7676      7667      7680      7681      7676      7667      7680      7682
      7676      7667      7680      7683      7677      7676      7667      7680
      7678      7676      7667      7680      7679      7676      7667      7680
      7680      7683      7690      7686      7681      7680      7683      7684
      7681      7680      7683      7685      7681      7680      7683      7690
      7682      7680      7683      7684      7682      7680      7683      7685
      7682      7680      7683      7690      7683      7690      7686      7687
      7683      7690      7686      7688      7683      7690      7686      7689
      7684      7683      7690      7686      7685      7683      7690      7686
      7686      7689      7691      7692      7686      7689      7691      7693
      7686      7689      7691      7696      7687      7686      7689      7691
      7688      7686      7689      7691      7689      7691      7696      7694
      7689      7691      7696      7697      7689      7691      7696      7698
      7690      7686      7689      7691      7691      7696      7694      7695
      7691      7696      7694      7746      7691      7696      7698      7699
      7691      7696      7698      7700      7691      7696      7698      7702
      7692      7691      7696      7694      7692      7691      7696      7697
      7692      7691      7696      7698      7693      7691      7696      7694
      7693      7691      7696      7697      7693      7691      7696      7698
      7694      7696      7698      7699      7694      7696      7698      7700
      7694      7696      7698      7702      7694      7746      7748      7749
      7694      7746      7748      7750      7694      7746      7748      7751
      7695      7694      7696      7697      7695      7694      7696      7698
      7695      7694      7746      7747      7695      7694      7746      7748
      7696      7694      7746      7747      7696      7694      7746      7748
      7696      7698      7700      7701      7696      7698      7702      7703
      7696      7698      7702      7704      7697      7696      7694      7746
      7697      7696      7698      7699      7697      7696      7698      7700
      7697      7696      7698      7702      7698      7696      7694      7746
      7698      7702      7704      7705      7698      7702      7704      7706
      7699      7698      7700      7701      7699      7698      7702      7703
      7699      7698      7702      7704      7700      7698      7702      7703
      7700      7698      7702      7704      7701      7700      7698      7702
      7702      7704      7706      7707      7702      7704      7706      7708
      7702      7704      7706      7709      7703      7702      7704      7705
      7703      7702      7704      7706      7704      7706      7709      7710
      7704      7706      7709      7711      7704      7706      7709      7712
      7705      7704      7706      7707      7705      7704      7706      7708
      7705      7704      7706      7709      7706      7709      7712      7713
      7706      7709      7712      7714      7706      7709      7712      7715
      7707      7706      7709      7710      7707      7706      7709      7711
      7707      7706      7709      7712      7708      7706      7709      7710
      7708      7706      7709      7711      7708      7706      7709      7712
      7709      7712      7715      7716      7709      7712      7715      7717
      7709      7712      7715      7718      7710      7709      7712      7713
      7710      7709      7712      7714      7710      7709      7712      7715
      7711      7709      7712      7713      7711      7709      7712      7714
      7711      7709      7712      7715      7712      7715      7718      7719
      7712      7715      7718      7720      7712      7715      7718      7721
      7713      7712      7715      7716      7713      7712      7715      7717
      7713      7712      7715      7718      7714      7712      7715      7716
      7714      7712      7715      7717      7714      7712      7715      7718
      7715      7718      7721      7722      7715      7718      7721      7723
      7715      7718      7721      7724      7716      7715      7718      7719
      7716      7715      7718      7720      7716      7715      7718      7721
      7717      7715      7718      7719      7717      7715      7718      7720
      7717      7715      7718      7721      7718      7721      7724      7725
      7718      7721      7724      7726      7718      7721      7724      7727
      7719      7718      7721      7722      7719      7718      7721      7723
      7719      7718      7721      7724      7720      7718      7721      7722
      7720      7718      7721      7723      7720      7718      7721      7724
      7721      7724      7727      7728      7721      7724      7727      7729
      7721      7724      7727      7730      7722      7721      7724      7725
      7722      7721      7724      7726      7722      7721      7724      7727
      7723      7721      7724      7725      7723      7721      7724      7726
      7723      7721      7724      7727      7724      7727      7730      7731
      7724      7727      7730      7732      7724      7727      7730      7733
      7725      7724      7727      7728      7725      7724      7727      7729
      7725      7724      7727      7730      7726      7724      7727      7728
      7726      7724      7727      7729      7726      7724      7727      7730
      7727      7730      7733      7734      7727      7730      7733      7735
      7727      7730      7733      7736      7728      7727      7730      7731
      7728      7727      7730      7732      7728      7727      7730      7733
      7729      7727      7730      7731      7729      7727      7730      7732
      7729      7727      7730      7733      7730      7733      7736      7737
      7730      7733      7736      7738      7730      7733      7736      7739
      7731      7730      7733      7734      7731      7730      7733      7735
      7731      7730      7733      7736      7732      7730      7733      7734
      7732      7730      7733      7735      7732      7730      7733      7736
      7733      7736      7739      7740      7733      7736      7739      7741
      7733      7736      7739      7742      7734      7733      7736      7737
      7734      7733      7736      7738      7734      7733      7736      7739
      7735      7733      7736      7737      7735      7733      7736      7738
      7735      7733      7736      7739      7736      7739      7742      7743
      7736      7739      7742      7744      7736      7739      7742      7745
      7737      7736      7739      7740      7737      7736      7739      7741
      7737      7736      7739      7742      7738      7736      7739      7740
      7738      7736      7739      7741      7738      7736      7739      7742
      7740      7739      7742      7743      7740      7739      7742      7744
      7740      7739      7742      7745      7741      7739      7742      7743
      7741      7739      7742      7744      7741      7739      7742      7745
      7746      7748      7751      7752      7746      7748      7751      7753
      7746      7748      7751      7754      7747      7746      7748      7749
      7747      7746      7748      7750      7747      7746      7748      7751
      7748      7751      7754      7755      7748      7751      7754      7756
      7748      7751      7754      7757      7749      7748      7751      7752
      7749      7748      7751      7753      7749      7748      7751      7754
      7750      7748      7751      7752      7750      7748      7751      7753
      7750      7748      7751      7754      7751      7754      7757      7758
      7751      7754      7757      7759      7751      7754      7757      7760
      7752      7751      7754      7755      7752      7751      7754      7756
      7752      7751      7754      7757      7753      7751      7754      7755
      7753      7751      7754      7756      7753      7751      7754      7757
      7754      7757      7760      7761      7754      7757      7760      7762
      7754      7757      7760      7763      7755      7754      7757      7758
      7755      7754      7757      7759      7755      7754      7757      7760
      7756      7754      7757      7758      7756      7754      7757      7759
      7756      7754      7757      7760      7757      7760      7763      7764
      7757      7760      7763      7765      7757      7760      7763      7766
      7758      7757      7760      7761      7758      7757      7760      7762
      7758      7757      7760      7763      7759      7757      7760      7761
      7759      7757      7760      7762      7759      7757      7760      7763
      7760      7763      7766      7767      7760      7763      7766      7768
      7760      7763      7766      7769      7761      7760      7763      7764
      7761      7760      7763      7765      7761      7760      7763      7766
      7762      7760      7763      7764      7762      7760      7763      7765
      7762      7760      7763      7766      7763      7766      7769      7770
      7763      7766      7769      7771      7764      7763      7766      7767
      7764      7763      7766      7768      7764      7763      7766      7769
      7765      7763      7766      7767      7765      7763      7766      7768
      7765      7763      7766      7769      7766      7769      7771      7772
      7766      7769      7771      7773      7767      7766      7769      7770
      7767      7766      7769      7771      7768      7766      7769      7770
      7768      7766      7769      7771      7769      7771      7773      7774
      7769      7771      7773      7775      7769      7771      7773      7776
      7770      7769      7771      7772      7770      7769      7771      7773
      7771      7773      7776      7777      7771      7773      7776      7778
      7771      7773      7776      7779      7772      7771      7773      7774
      7772      7771      7773      7775      7772      7771      7773      7776
      7773      7776      7779      7780      7773      7776      7779      7781
      7773      7776      7779      7782      7774      7773      7776      7777
      7774      7773      7776      7778      7774      7773      7776      7779
      7775      7773      7776      7777      7775      7773      7776      7778
      7775      7773      7776      7779      7776      7779      7782      7783
      7776      7779      7782      7784      7776      7779      7782      7785
      7777      7776      7779      7780      7777      7776      7779      7781
      7777      7776      7779      7782      7778      7776      7779      7780
      7778      7776      7779      7781      7778      7776      7779      7782
      7779      7782      7785      7786      7779      7782      7785      7787
      7779      7782      7785      7788      7780      7779      7782      7783
      7780      7779      7782      7784      7780      7779      7782      7785
      7781      7779      7782      7783      7781      7779      7782      7784
      7781      7779      7782      7785      7782      7785      7788      7789
      7782      7785      7788      7790      7782      7785      7788      7791
      7783      7782      7785      7786      7783      7782      7785      7787
      7783      7782      7785      7788      7784      7782      7785      7786
      7784      7782      7785      7787      7784      7782      7785      7788
      7785      7788      7791      7792      7785      7788      7791      7793
      7785      7788      7791      7794      7786      7785      7788      7789
      7786      7785      7788      7790      7786      7785      7788      7791
      7787      7785      7788      7789      7787      7785      7788      7790
      7787      7785      7788      7791      7788      7791      7794      7795
      7788      7791      7794      7796      7788      7791      7794      7797
      7789      7788      7791      7792      7789      7788      7791      7793
      7789      7788      7791      7794      7790      7788      7791      7792
      7790      7788      7791      7793      7790      7788      7791      7794
      7792      7791      7794      7795      7792      7791      7794      7796
      7792      7791      7794      7797      7793      7791      7794      7795
      7793      7791      7794      7796      7793      7791      7794      7797
      7798      7811      7814      7815      7798      7811      7814      7816
      7798      7811      7814      7821      7799      7798      7803      7804
      7799      7798      7803      7805      7799      7798      7803      7806
      7799      7798      7807      7808      7799      7798      7807      7809
      7799      7798      7807      7810      7799      7798      7811      7812
      7799      7798      7811      7813      7799      7798      7811      7814
      7800      7799      7798      7803      7800      7799      7798      7807
      7800      7799      7798      7811      7801      7799      7798      7803
      7801      7799      7798      7807      7801      7799      7798      7811
      7802      7799      7798      7803      7802      7799      7798      7807
      7802      7799      7798      7811      7803      7798      7807      7808
      7803      7798      7807      7809      7803      7798      7807      7810
      7803      7798      7811      7812      7803      7798      7811      7813
      7803      7798      7811      7814      7804      7803      7798      7807
      7804      7803      7798      7811      7805      7803      7798      7807
      7805      7803      7798      7811      7806      7803      7798      7807
      7806      7803      7798      7811      7807      7798      7811      7812
      7807      7798      7811      7813      7807      7798      7811      7814
      7808      7807      7798      7811      7809      7807      7798      7811
      7810      7807      7798      7811      7811      7814      7821      7817
      7812      7811      7814      7815      7812      7811      7814      7816
      7812      7811      7814      7821      7813      7811      7814      7815
      7813      7811      7814      7816      7813      7811      7814      7821
      7814      7821      7817      7818      7814      7821      7817      7819
      7814      7821      7817      7820      7815      7814      7821      7817
      7816      7814      7821      7817      7817      7820      7822      7823
      7817      7820      7822      7824      7817      7820      7822      7827
      7818      7817      7820      7822      7819      7817      7820      7822
      7820      7822      7827      7825      7820      7822      7827      7828
      7820      7822      7827      7829      7821      7817      7820      7822
      7822      7827      7825      7826      7822      7827      7825      7877
      7822      7827      7829      7830      7822      7827      7829      7831
      7822      7827      7829      7833      7823      7822      7827      7825
      7823      7822      7827      7828      7823      7822      7827      7829
      7824      7822      7827      7825      7824      7822      7827      7828
      7824      7822      7827      7829      7825      7827      7829      7830
      7825      7827      7829      7831      7825      7827      7829      7833
      7825      7877      7879      7880      7825      7877      7879      7881
      7825      7877      7879      7882      7826      7825      7827      7828
      7826      7825      7827      7829      7826      7825      7877      7878
      7826      7825      7877      7879      7827      7825      7877      7878
      7827      7825      7877      7879      7827      7829      7831      7832
      7827      7829      7833      7834      7827      7829      7833      7835
      7828      7827      7825      7877      7828      7827      7829      7830
      7828      7827      7829      7831      7828      7827      7829      7833
      7829      7827      7825      7877      7829      7833      7835      7836
      7829      7833      7835      7837      7830      7829      7831      7832
      7830      7829      7833      7834      7830      7829      7833      7835
      7831      7829      7833      7834      7831      7829      7833      7835
      7832      7831      7829      7833      7833      7835      7837      7838
      7833      7835      7837      7839      7833      7835      7837      7840
      7834      7833      7835      7836      7834      7833      7835      7837
      7835      7837      7840      7841      7835      7837      7840      7842
      7835      7837      7840      7843      7836      7835      7837      7838
      7836      7835      7837      7839      7836      7835      7837      7840
      7837      7840      7843      7844      7837      7840      7843      7845
      7837      7840      7843      7846      7838      7837      7840      7841
      7838      7837      7840      7842      7838      7837      7840      7843
      7839      7837      7840      7841      7839      7837      7840      7842
      7839      7837      7840      7843      7840      7843      7846      7847
      7840      7843      7846      7848      7840      7843      7846      7849
      7841      7840      7843      7844      7841      7840      7843      7845
      7841      7840      7843      7846      7842      7840      7843      7844
      7842      7840      7843      7845      7842      7840      7843      7846
      7843      7846      7849      7850      7843      7846      7849      7851
      7843      7846      7849      7852      7844      7843      7846      7847
      7844      7843      7846      7848      7844      7843      7846      7849
      7845      7843      7846      7847      7845      7843      7846      7848
      7845      7843      7846      7849      7846      7849      7852      7853
      7846      7849      7852      7854      7846      7849      7852      7855
      7847      7846      7849      7850      7847      7846      7849      7851
      7847      7846      7849      7852      7848      7846      7849      7850
      7848      7846      7849      7851      7848      7846      7849      7852
      7849      7852      7855      7856      7849      7852      7855      7857
      7849      7852      7855      7858      7850      7849      7852      7853
      7850      7849      7852      7854      7850      7849      7852      7855
      7851      7849      7852      7853      7851      7849      7852      7854
      7851      7849      7852      7855      7852      7855      7858      7859
      7852      7855      7858      7860      7852      7855      7858      7861
      7853      7852      7855      7856      7853      7852      7855      7857
      7853      7852      7855      7858      7854      7852      7855      7856
      7854      7852      7855      7857      7854      7852      7855      7858
      7855      7858      7861      7862      7855      7858      7861      7863
      7855      7858      7861      7864      7856      7855      7858      7859
      7856      7855      7858      7860      7856      7855      7858      7861
      7857      7855      7858      7859      7857      7855      7858      7860
      7857      7855      7858      7861      7858      7861      7864      7865
      7858      7861      7864      7866      7858      7861      7864      7867
      7859      7858      7861      7862      7859      7858      7861      7863
      7859      7858      7861      7864      7860      7858      7861      7862
      7860      7858      7861      7863      7860      7858      7861      7864
      7861      7864      7867      7868      7861      7864      7867      7869
      7861      7864      7867      7870      7862      7861      7864      7865
      7862      7861      7864      7866      7862      7861      7864      7867
      7863      7861      7864      7865      7863      7861      7864      7866
      7863      7861      7864      7867      7864      7867      7870      7871
      7864      7867      7870      7872      7864      7867      7870      7873
      7865      7864      7867      7868      7865      7864      7867      7869
      7865      7864      7867      7870      7866      7864      7867      7868
      7866      7864      7867      7869      7866      7864      7867      7870
      7867      7870      7873      7874      7867      7870      7873      7875
      7867      7870      7873      7876      7868      7867      7870      7871
      7868      7867      7870      7872      7868      7867      7870      7873
      7869      7867      7870      7871      7869      7867      7870      7872
      7869      7867      7870      7873      7871      7870      7873      7874
      7871      7870      7873      7875      7871      7870      7873      7876
      7872      7870      7873      7874      7872      7870      7873      7875
      7872      7870      7873      7876      7877      7879      7882      7883
      7877      7879      7882      7884      7877      7879      7882      7885
      7878      7877      7879      7880      7878      7877      7879      7881
      7878      7877      7879      7882      7879      7882      7885      7886
      7879      7882      7885      7887      7879      7882      7885      7888
      7880      7879      7882      7883      7880      7879      7882      7884
      7880      7879      7882      7885      7881      7879      7882      7883
      7881      7879      7882      7884      7881      7879      7882      7885
      7882      7885      7888      7889      7882      7885      7888      7890
      7882      7885      7888      7891      7883      7882      7885      7886
      7883      7882      7885      7887      7883      7882      7885      7888
      7884      7882      7885      7886      7884      7882      7885      7887
      7884      7882      7885      7888      7885      7888      7891      7892
      7885      7888      7891      7893      7885      7888      7891      7894
      7886      7885      7888      7889      7886      7885      7888      7890
      7886      7885      7888      7891      7887      7885      7888      7889
      7887      7885      7888      7890      7887      7885      7888      7891
      7888      7891      7894      7895      7888      7891      7894      7896
      7888      7891      7894      7897      7889      7888      7891      7892
      7889      7888      7891      7893      7889      7888      7891      7894
      7890      7888      7891      7892      7890      7888      7891      7893
      7890      7888      7891      7894      7891      7894      7897      7898
      7891      7894      7897      7899      7891      7894      7897      7900
      7892      7891      7894      7895      7892      7891      7894      7896
      7892      7891      7894      7897      7893      7891      7894      7895
      7893      7891      7894      7896      7893      7891      7894      7897
      7894      7897      7900      7901      7894      7897      7900      7902
      7895      7894      7897      7898      7895      7894      7897      7899
      7895      7894      7897      7900      7896      7894      7897      7898
      7896      7894      7897      7899      7896      7894      7897      7900
      7897      7900      7902      7903      7897      7900      7902      7904
      7898      7897      7900      7901      7898      7897      7900      7902
      7899      7897      7900      7901      7899      7897      7900      7902
      7900      7902      7904      7905      7900      7902      7904      7906
      7900      7902      7904      7907      7901      7900      7902      7903
      7901      7900      7902      7904      7902      7904      7907      7908
      7902      7904      7907      7909      7902      7904      7907      7910
      7903      7902      7904      7905      7903      7902      7904      7906
      7903      7902      7904      7907      7904      7907      7910      7911
      7904      7907      7910      7912      7904      7907      7910      7913
      7905      7904      7907      7908      7905      7904      7907      7909
      7905      7904      7907      7910      7906      7904      7907      7908
      7906      7904      7907      7909      7906      7904      7907      7910
      7907      7910      7913      7914      7907      7910      7913      7915
      7907      7910      7913      7916      7908      7907      7910      7911
      7908      7907      7910      7912      7908      7907      7910      7913
      7909      7907      7910      7911      7909      7907      7910      7912
      7909      7907      7910      7913      7910      7913      7916      7917
      7910      7913      7916      7918      7910      7913      7916      7919
      7911      7910      7913      7914      7911      7910      7913      7915
      7911      7910      7913      7916      7912      7910      7913      7914
      7912      7910      7913      7915      7912      7910      7913      7916
      7913      7916      7919      7920      7913      7916      7919      7921
      7913      7916      7919      7922      7914      7913      7916      7917
      7914      7913      7916      7918      7914      7913      7916      7919
      7915      7913      7916      7917      7915      7913      7916      7918
      7915      7913      7916      7919      7916      7919      7922      7923
      7916      7919      7922      7924      7916      7919      7922      7925
      7917      7916      7919      7920      7917      7916      7919      7921
      7917      7916      7919      7922      7918      7916      7919      7920
      7918      7916      7919      7921      7918      7916      7919      7922
      7919      7922      7925      7926      7919      7922      7925      7927
      7919      7922      7925      7928      7920      7919      7922      7923
      7920      7919      7922      7924      7920      7919      7922      7925
      7921      7919      7922      7923      7921      7919      7922      7924
      7921      7919      7922      7925      7923      7922      7925      7926
      7923      7922      7925      7927      7923      7922      7925      7928
      7924      7922      7925      7926      7924      7922      7925      7927
      7924      7922      7925      7928      7929      7942      7945      7946
      7929      7942      7945      7947      7929      7942      7945      7952
      7930      7929      7934      7935      7930      7929      7934      7936
      7930      7929      7934      7937      7930      7929      7938      7939
      7930      7929      7938      7940      7930      7929      7938      7941
      7930      7929      7942      7943      7930      7929      7942      7944
      7930      7929      7942      7945      7931      7930      7929      7934
      7931      7930      7929      7938      7931      7930      7929      7942
      7932      7930      7929      7934      7932      7930      7929      7938
      7932      7930      7929      7942      7933      7930      7929      7934
      7933      7930      7929      7938      7933      7930      7929      7942
      7934      7929      7938      7939      7934      7929      7938      7940
      7934      7929      7938      7941      7934      7929      7942      7943
      7934      7929      7942      7944      7934      7929      7942      7945
      7935      7934      7929      7938      7935      7934      7929      7942
      7936      7934      7929      7938      7936      7934      7929      7942
      7937      7934      7929      7938      7937      7934      7929      7942
      7938      7929      7942      7943      7938      7929      7942      7944
      7938      7929      7942      7945      7939      7938      7929      7942
      7940      7938      7929      7942      7941      7938      7929      7942
      7942      7945      7952      7948      7943      7942      7945      7946
      7943      7942      7945      7947      7943      7942      7945      7952
      7944      7942      7945      7946      7944      7942      7945      7947
      7944      7942      7945      7952      7945      7952      7948      7949
      7945      7952      7948      7950      7945      7952      7948      7951
      7946      7945      7952      7948      7947      7945      7952      7948
      7948      7951      7953      7954      7948      7951      7953      7955
      7948      7951      7953      7958      7949      7948      7951      7953
      7950      7948      7951      7953      7951      7953      7958      7956
      7951      7953      7958      7959      7951      7953      7958      7960
      7952      7948      7951      7953      7953      7958      7956      7957
      7953      7958      7956      8008      7953      7958      7960      7961
      7953      7958      7960      7962      7953      7958      7960      7964
      7954      7953      7958      7956      7954      7953      7958      7959
      7954      7953      7958      7960      7955      7953      7958      7956
      7955      7953      7958      7959      7955      7953      7958      7960
      7956      7958      7960      7961      7956      7958      7960      7962
      7956      7958      7960      7964      7956      8008      8010      8011
      7956      8008      8010      8012      7956      8008      8010      8013
      7957      7956      7958      7959      7957      7956      7958      7960
      7957      7956      8008      8009      7957      7956      8008      8010
      7958      7956      8008      8009      7958      7956      8008      8010
      7958      7960      7962      7963      7958      7960      7964      7965
      7958      7960      7964      7966      7959      7958      7956      8008
      7959      7958      7960      7961      7959      7958      7960      7962
      7959      7958      7960      7964      7960      7958      7956      8008
      7960      7964      7966      7967      7960      7964      7966      7968
      7961      7960      7962      7963      7961      7960      7964      7965
      7961      7960      7964      7966      7962      7960      7964      7965
      7962      7960      7964      7966      7963      7962      7960      7964
      7964      7966      7968      7969      7964      7966      7968      7970
      7964      7966      7968      7971      7965      7964      7966      7967
      7965      7964      7966      7968      7966      7968      7971      7972
      7966      7968      7971      7973      7966      7968      7971      7974
      7967      7966      7968      7969      7967      7966      7968      7970
      7967      7966      7968      7971      7968      7971      7974      7975
      7968      7971      7974      7976      7968      7971      7974      7977
      7969      7968      7971      7972      7969      7968      7971      7973
      7969      7968      7971      7974      7970      7968      7971      7972
      7970      7968      7971      7973      7970      7968      7971      7974
      7971      7974      7977      7978      7971      7974      7977      7979
      7971      7974      7977      7980      7972      7971      7974      7975
      7972      7971      7974      7976      7972      7971      7974      7977
      7973      7971      7974      7975      7973      7971      7974      7976
      7973      7971      7974      7977      7974      7977      7980      7981
      7974      7977      7980      7982      7974      7977      7980      7983
      7975      7974      7977      7978      7975      7974      7977      7979
      7975      7974      7977      7980      7976      7974      7977      7978
      7976      7974      7977      7979      7976      7974      7977      7980
      7977      7980      7983      7984      7977      7980      7983      7985
      7977      7980      7983      7986      7978      7977      7980      7981
      7978      7977      7980      7982      7978      7977      7980      7983
      7979      7977      7980      7981      7979      7977      7980      7982
      7979      7977      7980      7983      7980      7983      7986      7987
      7980      7983      7986      7988      7980      7983      7986      7989
      7981      7980      7983      7984      7981      7980      7983      7985
      7981      7980      7983      7986      7982      7980      7983      7984
      7982      7980      7983      7985      7982      7980      7983      7986
      7983      7986      7989      7990      7983      7986      7989      7991
      7983      7986      7989      7992      7984      7983      7986      7987
      7984      7983      7986      7988      7984      7983      7986      7989
      7985      7983      7986      7987      7985      7983      7986      7988
      7985      7983      7986      7989      7986      7989      7992      7993
      7986      7989      7992      7994      7986      7989      7992      7995
      7987      7986      7989      7990      7987      7986      7989      7991
      7987      7986      7989      7992      7988      7986      7989      7990
      7988      7986      7989      7991      7988      7986      7989      7992
      7989      7992      7995      7996      7989      7992      7995      7997
      7989      7992      7995      7998      7990      7989      7992      7993
      7990      7989      7992      7994      7990      7989      7992      7995
      7991      7989      7992      7993      7991      7989      7992      7994
      7991      7989      7992      7995      7992      7995      7998      7999
      7992      7995      7998      8000      7992      7995      7998      8001
      7993      7992      7995      7996      7993      7992      7995      7997
      7993      7992      7995      7998      7994      7992      7995      7996
      7994      7992      7995      7997      7994      7992      7995      7998
      7995      7998      8001      8002      7995      7998      8001      8003
      7995      7998      8001      8004      7996      7995      7998      7999
      7996      7995      7998      8000      7996      7995      7998      8001
      7997      7995      7998      7999      7997      7995      7998      8000
      7997      7995      7998      8001      7998      8001      8004      8005
      7998      8001      8004      8006      7998      8001      8004      8007
      7999      7998      8001      8002      7999      7998      8001      8003
      7999      7998      8001      8004      8000      7998      8001      8002
      8000      7998      8001      8003      8000      7998      8001      8004
      8002      8001      8004      8005      8002      8001      8004      8006
      8002      8001      8004      8007      8003      8001      8004      8005
      8003      8001      8004      8006      8003      8001      8004      8007
      8008      8010      8013      8014      8008      8010      8013      8015
      8008      8010      8013      8016      8009      8008      8010      8011
      8009      8008      8010      8012      8009      8008      8010      8013
      8010      8013      8016      8017      8010      8013      8016      8018
      8010      8013      8016      8019      8011      8010      8013      8014
      8011      8010      8013      8015      8011      8010      8013      8016
      8012      8010      8013      8014      8012      8010      8013      8015
      8012      8010      8013      8016      8013      8016      8019      8020
      8013      8016      8019      8021      8013      8016      8019      8022
      8014      8013      8016      8017      8014      8013      8016      8018
      8014      8013      8016      8019      8015      8013      8016      8017
      8015      8013      8016      8018      8015      8013      8016      8019
      8016      8019      8022      8023      8016      8019      8022      8024
      8016      8019      8022      8025      8017      8016      8019      8020
      8017      8016      8019      8021      8017      8016      8019      8022
      8018      8016      8019      8020      8018      8016      8019      8021
      8018      8016      8019      8022      8019      8022      8025      8026
      8019      8022      8025      8027      8019      8022      8025      8028
      8020      8019      8022      8023      8020      8019      8022      8024
      8020      8019      8022      8025      8021      8019      8022      8023
      8021      8019      8022      8024      8021      8019      8022      8025
      8022      8025      8028      8029      8022      8025      8028      8030
      8022      8025      8028      8031      8023      8022      8025      8026
      8023      8022      8025      8027      8023      8022      8025      8028
      8024      8022      8025      8026      8024      8022      8025      8027
      8024      8022      8025      8028      8025      8028      8031      8032
      8025      8028      8031      8033      8026      8025      8028      8029
      8026      8025      8028      8030      8026      8025      8028      8031
      8027      8025      8028      8029      8027      8025      8028      8030
      8027      8025      8028      8031      8028      8031      8033      8034
      8028      8031      8033      8035      8029      8028      8031      8032
      8029      8028      8031      8033      8030      8028      8031      8032
      8030      8028      8031      8033      8031      8033      8035      8036
      8031      8033      8035      8037      8031      8033      8035      8038
      8032      8031      8033      8034      8032      8031      8033      8035
      8033      8035      8038      8039      8033      8035      8038      8040
      8033      8035      8038      8041      8034      8033      8035      8036
      8034      8033      8035      8037      8034      8033      8035      8038
      8035      8038      8041      8042      8035      8038      8041      8043
      8035      8038      8041      8044      8036      8035      8038      8039
      8036      8035      8038      8040      8036      8035      8038      8041
      8037      8035      8038      8039      8037      8035      8038      8040
      8037      8035      8038      8041      8038      8041      8044      8045
      8038      8041      8044      8046      8038      8041      8044      8047
      8039      8038      8041      8042      8039      8038      8041      8043
      8039      8038      8041      8044      8040      8038      8041      8042
      8040      8038      8041      8043      8040      8038      8041      8044
      8041      8044      8047      8048      8041      8044      8047      8049
      8041      8044      8047      8050      8042      8041      8044      8045
      8042      8041      8044      8046      8042      8041      8044      8047
      8043      8041      8044      8045      8043      8041      8044      8046
      8043      8041      8044      8047      8044      8047      8050      8051
      8044      8047      8050      8052      8044      8047      8050      8053
      8045      8044      8047      8048      8045      8044      8047      8049
      8045      8044      8047      8050      8046      8044      8047      8048
      8046      8044      8047      8049      8046      8044      8047      8050
      8047      8050      8053      8054      8047      8050      8053      8055
      8047      8050      8053      8056      8048      8047      8050      8051
      8048      8047      8050      8052      8048      8047      8050      8053
      8049      8047      8050      8051      8049      8047      8050      8052
      8049      8047      8050      8053      8050      8053      8056      8057
      8050      8053      8056      8058      8050      8053      8056      8059
      8051      8050      8053      8054      8051      8050      8053      8055
      8051      8050      8053      8056      8052      8050      8053      8054
      8052      8050      8053      8055      8052      8050      8053      8056
      8054      8053      8056      8057      8054      8053      8056      8058
      8054      8053      8056      8059      8055      8053      8056      8057
      8055      8053      8056      8058      8055      8053      8056      8059
      8060      8061      8076      8077      8060      8061      8076      8078
      8060      8061      8076      8082      8061      8060      8064      8065
      8061      8060      8064      8066      8061      8060      8064      8067
      8061      8060      8068      8069      8061      8060      8068      8070
      8061      8060      8068      8071      8061      8060      8072      8073
      8061      8060      8072      8074      8061      8060      8072      8075
      8061      8076      8082      8079      8062      8061      8060      8064
      8062      8061      8060      8068      8062      8061      8060      8072
      8062      8061      8076      8077      8062      8061      8076      8078
      8062      8061      8076      8082      8063      8061      8060      8064
      8063      8061      8060      8068      8063      8061      8060      8072
      8063      8061      8076      8077      8063      8061      8076      8078
      8063      8061      8076      8082      8064      8060      8061      8076
      8064      8060      8068      8069      8064      8060      8068      8070
      8064      8060      8068      8071      8064      8060      8072      8073
      8064      8060      8072      8074      8064      8060      8072      8075
      8065      8064      8060      8068      8065      8064      8060      8072
      8066      8064      8060      8068      8066      8064      8060      8072
      8067      8064      8060      8068      8067      8064      8060      8072
      8068      8060      8061      8076      8068      8060      8072      8073
      8068      8060      8072      8074      8068      8060      8072      8075
      8069      8068      8060      8072      8070      8068      8060      8072
      8071      8068      8060      8072      8072      8060      8061      8076
      8076      8082      8079      8080      8076      8082      8079      8081
      8076      8082      8079      8083      8077      8076      8082      8079
      8078      8076      8082      8079      8079      8083      8084      8085
      8079      8083      8084      8086      8079      8083      8084      8087
      8080      8079      8083      8084      8081      8079      8083      8084
      8082      8079      8083      8084      8083      8084      8087      8088
      8083      8084      8087      8089      8083      8084      8087      8095
      8084      8087      8089      8090      8084      8087      8095      8096
      8084      8087      8095      8097      8084      8087      8095      8098
      8085      8084      8087      8088      8085      8084      8087      8089
      8085      8084      8087      8095      8086      8084      8087      8088
      8086      8084      8087      8089      8086      8084      8087      8095
      8087      8089      8090      8091      8087      8089      8090      8092
      8087      8095      8098      8099      8088      8087      8089      8090
      8088      8087      8095      8096      8088      8087      8095      8097
      8088      8087      8095      8098      8089      8087      8095      8096
      8089      8087      8095      8097      8089      8087      8095      8098
      8089      8090      8092      8093      8089      8090      8092      8094
      8089      8090      8092      8104      8090      8089      8087      8095
      8090      8092      8104      8105      8090      8092      8104      8106
      8090      8092      8104      8107      8091      8090      8092      8093
      8091      8090      8092      8094      8091      8090      8092      8104
      8092      8104      8107      8108      8092      8104      8107      8109
      8092      8104      8107      8110      8093      8092      8104      8105
      8093      8092      8104      8106      8093      8092      8104      8107
      8094      8092      8104      8105      8094      8092      8104      8106
      8094      8092      8104      8107      8095      8098      8099      8100
      8095      8098      8099      8101      8096      8095      8098      8099
      8097      8095      8098      8099      8098      8099      8101      8102
      8098      8099      8101      8103      8098      8099      8101      8151
      8099      8101      8151      8152      8099      8101      8151      8153
      8099      8101      8151      8154      8100      8099      8101      8102
      8100      8099      8101      8103      8100      8099      8101      8151
      8101      8151      8154      8155      8101      8151      8154      8156
      8101      8151      8154      8157      8102      8101      8151      8152
      8102      8101      8151      8153      8102      8101      8151      8154
      8103      8101      8151      8152      8103      8101      8151      8153
      8103      8101      8151      8154      8104      8107      8110      8111
      8104      8107      8110      8112      8105      8104      8107      8108
      8105      8104      8107      8109      8105      8104      8107      8110
      8106      8104      8107      8108      8106      8104      8107      8109
      8106      8104      8107      8110      8107      8110      8112      8113
      8107      8110      8112      8114      8108      8107      8110      8111
      8108      8107      8110      8112      8109      8107      8110      8111
      8109      8107      8110      8112      8110      8112      8114      8115
      8110      8112      8114      8116      8110      8112      8114      8117
      8111      8110      8112      8113      8111      8110      8112      8114
      8112      8114      8117      8118      8112      8114      8117      8119
      8113      8112      8114      8115      8113      8112      8114      8116
      8113      8112      8114      8117      8114      8117      8119      8120
      8114      8117      8119      8121      8115      8114      8117      8118
      8115      8114      8117      8119      8116      8114      8117      8118
      8116      8114      8117      8119      8117      8119      8121      8122
      8117      8119      8121      8123      8117      8119      8121      8124
      8118      8117      8119      8120      8118      8117      8119      8121
      8119      8121      8124      8125      8119      8121      8124      8126
      8120      8119      8121      8122      8120      8119      8121      8123
      8120      8119      8121      8124      8121      8124      8126      8127
      8121      8124      8126      8128      8122      8121      8124      8125
      8122      8121      8124      8126      8123      8121      8124      8125
      8123      8121      8124      8126      8124      8126      8128      8129
      8124      8126      8128      8130      8124      8126      8128      8131
      8125      8124      8126      8127      8125      8124      8126      8128
      8126      8128      8131      8132      8126      8128      8131      8133
      8127      8126      8128      8129      8127      8126      8128      8130
      8127      8126      8128      8131      8128      8131      8133      8134
      8128      8131      8133      8135      8129      8128      8131      8132
      8129      8128      8131      8133      8130      8128      8131      8132
      8130      8128      8131      8133      8131      8133      8135      8136
      8131      8133      8135      8137      8131      8133      8135      8138
      8132      8131      8133      8134      8132      8131      8133      8135
      8133      8135      8138      8139      8133      8135      8138      8140
      8133      8135      8138      8141      8134      8133      8135      8136
      8134      8133      8135      8137      8134      8133      8135      8138
      8135      8138      8141      8142      8135      8138      8141      8143
      8135      8138      8141      8144      8136      8135      8138      8139
      8136      8135      8138      8140      8136      8135      8138      8141
      8137      8135      8138      8139      8137      8135      8138      8140
      8137      8135      8138      8141      8138      8141      8144      8145
      8138      8141      8144      8146      8138      8141      8144      8147
      8139      8138      8141      8142      8139      8138      8141      8143
      8139      8138      8141      8144      8140      8138      8141      8142
      8140      8138      8141      8143      8140      8138      8141      8144
      8141      8144      8147      8148      8141      8144      8147      8149
      8141      8144      8147      8150      8142      8141      8144      8145
      8142      8141      8144      8146      8142      8141      8144      8147
      8143      8141      8144      8145      8143      8141      8144      8146
      8143      8141      8144      8147      8145      8144      8147      8148
      8145      8144      8147      8149      8145      8144      8147      8150
      8146      8144      8147      8148      8146      8144      8147      8149
      8146      8144      8147      8150      8151      8154      8157      8158
      8151      8154      8157      8159      8151      8154      8157      8160
      8152      8151      8154      8155      8152      8151      8154      8156
      8152      8151      8154      8157      8153      8151      8154      8155
      8153      8151      8154      8156      8153      8151      8154      8157
      8154      8157      8160      8161      8154      8157      8160      8162
      8154      8157      8160      8163      8155      8154      8157      8158
      8155      8154      8157      8159      8155      8154      8157      8160
      8156      8154      8157      8158      8156      8154      8157      8159
      8156      8154      8157      8160      8157      8160      8163      8164
      8157      8160      8163      8165      8157      8160      8163      8166
      8158      8157      8160      8161      8158      8157      8160      8162
      8158      8157      8160      8163      8159      8157      8160      8161
      8159      8157      8160      8162      8159      8157      8160      8163
      8160      8163      8166      8167      8160      8163      8166      8168
      8160      8163      8166      8169      8161      8160      8163      8164
      8161      8160      8163      8165      8161      8160      8163      8166
      8162      8160      8163      8164      8162      8160      8163      8165
      8162      8160      8163      8166      8163      8166      8169      8170
      8163      8166      8169      8171      8163      8166      8169      8172
      8164      8163      8166      8167      8164      8163      8166      8168
      8164      8163      8166      8169      8165      8163      8166      8167
      8165      8163      8166      8168      8165      8163      8166      8169
      8166      8169      8172      8173      8166      8169      8172      8174
      8166      8169      8172      8175      8167      8166      8169      8170
      8167      8166      8169      8171      8167      8166      8169      8172
      8168      8166      8169      8170      8168      8166      8169      8171
      8168      8166      8169      8172      8169      8172      8175      8176
      8169      8172      8175      8177      8169      8172      8175      8178
      8170      8169      8172      8173      8170      8169      8172      8174
      8170      8169      8172      8175      8171      8169      8172      8173
      8171      8169      8172      8174      8171      8169      8172      8175
      8172      8175      8178      8179      8172      8175      8178      8180
      8172      8175      8178      8181      8173      8172      8175      8176
      8173      8172      8175      8177      8173      8172      8175      8178
      8174      8172      8175      8176      8174      8172      8175      8177
      8174      8172      8175      8178      8175      8178      8181      8182
      8175      8178      8181      8183      8175      8178      8181      8184
      8176      8175      8178      8179      8176      8175      8178      8180
      8176      8175      8178      8181      8177      8175      8178      8179
      8177      8175      8178      8180      8177      8175      8178      8181
      8178      8181      8184      8185      8178      8181      8184      8186
      8178      8181      8184      8187      8179      8178      8181      8182
      8179      8178      8181      8183      8179      8178      8181      8184
      8180      8178      8181      8182      8180      8178      8181      8183
      8180      8178      8181      8184      8181      8184      8187      8188
      8181      8184      8187      8189      8181      8184      8187      8190
      8182      8181      8184      8185      8182      8181      8184      8186
      8182      8181      8184      8187      8183      8181      8184      8185
      8183      8181      8184      8186      8183      8181      8184      8187
      8184      8187      8190      8191      8184      8187      8190      8192
      8184      8187      8190      8193      8185      8184      8187      8188
      8185      8184      8187      8189      8185      8184      8187      8190
      8186      8184      8187      8188      8186      8184      8187      8189
      8186      8184      8187      8190      8187      8190      8193      8194
      8187      8190      8193      8195      8187      8190      8193      8196
      8188      8187      8190      8191      8188      8187      8190      8192
      8188      8187      8190      8193      8189      8187      8190      8191
      8189      8187      8190      8192      8189      8187      8190      8193
      8190      8193      8196      8197      8190      8193      8196      8198
      8190      8193      8196      8199      8191      8190      8193      8194
      8191      8190      8193      8195      8191      8190      8193      8196
      8192      8190      8193      8194      8192      8190      8193      8195
      8192      8190      8193      8196      8194      8193      8196      8197
      8194      8193      8196      8198      8194      8193      8196      8199
      8195      8193      8196      8197      8195      8193      8196      8198
      8195      8193      8196      8199      8200      8213      8216      8217
      8200      8213      8216      8218      8200      8213      8216      8223
      8201      8200      8205      8206      8201      8200      8205      8207
      8201      8200      8205      8208      8201      8200      8209      8210
      8201      8200      8209      8211      8201      8200      8209      8212
      8201      8200      8213      8214      8201      8200      8213      8215
      8201      8200      8213      8216      8202      8201      8200      8205
      8202      8201      8200      8209      8202      8201      8200      8213
      8203      8201      8200      8205      8203      8201      8200      8209
      8203      8201      8200      8213      8204      8201      8200      8205
      8204      8201      8200      8209      8204      8201      8200      8213
      8205      8200      8209      8210      8205      8200      8209      8211
      8205      8200      8209      8212      8205      8200      8213      8214
      8205      8200      8213      8215      8205      8200      8213      8216
      8206      8205      8200      8209      8206      8205      8200      8213
      8207      8205      8200      8209      8207      8205      8200      8213
      8208      8205      8200      8209      8208      8205      8200      8213
      8209      8200      8213      8214      8209      8200      8213      8215
      8209      8200      8213      8216      8210      8209      8200      8213
      8211      8209      8200      8213      8212      8209      8200      8213
      8213      8216      8223      8219      8214      8213      8216      8217
      8214      8213      8216      8218      8214      8213      8216      8223
      8215      8213      8216      8217      8215      8213      8216      8218
      8215      8213      8216      8223      8216      8223      8219      8220
      8216      8223      8219      8221      8216      8223      8219      8222
      8217      8216      8223      8219      8218      8216      8223      8219
      8219      8222      8224      8225      8219      8222      8224      8226
      8219      8222      8224      8229      8220      8219      8222      8224
      8221      8219      8222      8224      8222      8224      8229      8227
      8222      8224      8229      8230      8222      8224      8229      8231
      8223      8219      8222      8224      8224      8229      8227      8228
      8224      8229      8227      8279      8224      8229      8231      8232
      8224      8229      8231      8233      8224      8229      8231      8235
      8225      8224      8229      8227      8225      8224      8229      8230
      8225      8224      8229      8231      8226      8224      8229      8227
      8226      8224      8229      8230      8226      8224      8229      8231
      8227      8229      8231      8232      8227      8229      8231      8233
      8227      8229      8231      8235      8227      8279      8281      8282
      8227      8279      8281      8283      8227      8279      8281      8284
      8228      8227      8229      8230      8228      8227      8229      8231
      8228      8227      8279      8280      8228      8227      8279      8281
      8229      8227      8279      8280      8229      8227      8279      8281
      8229      8231      8233      8234      8229      8231      8235      8236
      8229      8231      8235      8237      8230      8229      8227      8279
      8230      8229      8231      8232      8230      8229      8231      8233
      8230      8229      8231      8235      8231      8229      8227      8279
      8231      8235      8237      8238      8231      8235      8237      8239
      8232      8231      8233      8234      8232      8231      8235      8236
      8232      8231      8235      8237      8233      8231      8235      8236
      8233      8231      8235      8237      8234      8233      8231      8235
      8235      8237      8239      8240      8235      8237      8239      8241
      8235      8237      8239      8242      8236      8235      8237      8238
      8236      8235      8237      8239      8237      8239      8242      8243
      8237      8239      8242      8244      8237      8239      8242      8245
      8238      8237      8239      8240      8238      8237      8239      8241
      8238      8237      8239      8242      8239      8242      8245      8246
      8239      8242      8245      8247      8239      8242      8245      8248
      8240      8239      8242      8243      8240      8239      8242      8244
      8240      8239      8242      8245      8241      8239      8242      8243
      8241      8239      8242      8244      8241      8239      8242      8245
      8242      8245      8248      8249      8242      8245      8248      8250
      8242      8245      8248      8251      8243      8242      8245      8246
      8243      8242      8245      8247      8243      8242      8245      8248
      8244      8242      8245      8246      8244      8242      8245      8247
      8244      8242      8245      8248      8245      8248      8251      8252
      8245      8248      8251      8253      8245      8248      8251      8254
      8246      8245      8248      8249      8246      8245      8248      8250
      8246      8245      8248      8251      8247      8245      8248      8249
      8247      8245      8248      8250      8247      8245      8248      8251
      8248      8251      8254      8255      8248      8251      8254      8256
      8248      8251      8254      8257      8249      8248      8251      8252
      8249      8248      8251      8253      8249      8248      8251      8254
      8250      8248      8251      8252      8250      8248      8251      8253
      8250      8248      8251      8254      8251      8254      8257      8258
      8251      8254      8257      8259      8251      8254      8257      8260
      8252      8251      8254      8255      8252      8251      8254      8256
      8252      8251      8254      8257      8253      8251      8254      8255
      8253      8251      8254      8256      8253      8251      8254      8257
      8254      8257      8260      8261      8254      8257      8260      8262
      8254      8257      8260      8263      8255      8254      8257      8258
      8255      8254      8257      8259      8255      8254      8257      8260
      8256      8254      8257      8258      8256      8254      8257      8259
      8256      8254      8257      8260      8257      8260      8263      8264
      8257      8260      8263      8265      8257      8260      8263      8266
      8258      8257      8260      8261      8258      8257      8260      8262
      8258      8257      8260      8263      8259      8257      8260      8261
      8259      8257      8260      8262      8259      8257      8260      8263
      8260      8263      8266      8267      8260      8263      8266      8268
      8260      8263      8266      8269      8261      8260      8263      8264
      8261      8260      8263      8265      8261      8260      8263      8266
      8262      8260      8263      8264      8262      8260      8263      8265
      8262      8260      8263      8266      8263      8266      8269      8270
      8263      8266      8269      8271      8263      8266      8269      8272
      8264      8263      8266      8267      8264      8263      8266      8268
      8264      8263      8266      8269      8265      8263      8266      8267
      8265      8263      8266      8268      8265      8263      8266      8269
      8266      8269      8272      8273      8266      8269      8272      8274
      8266      8269      8272      8275      8267      8266      8269      8270
      8267      8266      8269      8271      8267      8266      8269      8272
      8268      8266      8269      8270      8268      8266      8269      8271
      8268      8266      8269      8272      8269      8272      8275      8276
      8269      8272      8275      8277      8269      8272      8275      8278
      8270      8269      8272      8273      8270      8269      8272      8274
      8270      8269      8272      8275      8271      8269      8272      8273
      8271      8269      8272      8274      8271      8269      8272      8275
      8273      8272      8275      8276      8273      8272      8275      8277
      8273      8272      8275      8278      8274      8272      8275      8276
      8274      8272      8275      8277      8274      8272      8275      8278
      8279      8281      8284      8285      8279      8281      8284      8286
      8279      8281      8284      8287      8280      8279      8281      8282
      8280      8279      8281      8283      8280      8279      8281      8284
      8281      8284      8287      8288      8281      8284      8287      8289
      8281      8284      8287      8290      8282      8281      8284      8285
      8282      8281      8284      8286      8282      8281      8284      8287
      8283      8281      8284      8285      8283      8281      8284      8286
      8283      8281      8284      8287      8284      8287      8290      8291
      8284      8287      8290      8292      8284      8287      8290      8293
      8285      8284      8287      8288      8285      8284      8287      8289
      8285      8284      8287      8290      8286      8284      8287      8288
      8286      8284      8287      8289      8286      8284      8287      8290
      8287      8290      8293      8294      8287      8290      8293      8295
      8287      8290      8293      8296      8288      8287      8290      8291
      8288      8287      8290      8292      8288      8287      8290      8293
      8289      8287      8290      8291      8289      8287      8290      8292
      8289      8287      8290      8293      8290      8293      8296      8297
      8290      8293      8296      8298      8290      8293      8296      8299
      8291      8290      8293      8294      8291      8290      8293      8295
      8291      8290      8293      8296      8292      8290      8293      8294
      8292      8290      8293      8295      8292      8290      8293      8296
      8293      8296      8299      8300      8293      8296      8299      8301
      8293      8296      8299      8302      8294      8293      8296      8297
      8294      8293      8296      8298      8294      8293      8296      8299
      8295      8293      8296      8297      8295      8293      8296      8298
      8295      8293      8296      8299      8296      8299      8302      8303
      8296      8299      8302      8304      8297      8296      8299      8300
      8297      8296      8299      8301      8297      8296      8299      8302
      8298      8296      8299      8300      8298      8296      8299      8301
      8298      8296      8299      8302      8299      8302      8304      8305
      8299      8302      8304      8306      8300      8299      8302      8303
      8300      8299      8302      8304      8301      8299      8302      8303
      8301      8299      8302      8304      8302      8304      8306      8307
      8302      8304      8306      8308      8302      8304      8306      8309
      8303      8302      8304      8305      8303      8302      8304      8306
      8304      8306      8309      8310      8304      8306      8309      8311
      8304      8306      8309      8312      8305      8304      8306      8307
      8305      8304      8306      8308      8305      8304      8306      8309
      8306      8309      8312      8313      8306      8309      8312      8314
      8306      8309      8312      8315      8307      8306      8309      8310
      8307      8306      8309      8311      8307      8306      8309      8312
      8308      8306      8309      8310      8308      8306      8309      8311
      8308      8306      8309      8312      8309      8312      8315      8316
      8309      8312      8315      8317      8309      8312      8315      8318
      8310      8309      8312      8313      8310      8309      8312      8314
      8310      8309      8312      8315      8311      8309      8312      8313
      8311      8309      8312      8314      8311      8309      8312      8315
      8312      8315      8318      8319      8312      8315      8318      8320
      8312      8315      8318      8321      8313      8312      8315      8316
      8313      8312      8315      8317      8313      8312      8315      8318
      8314      8312      8315      8316      8314      8312      8315      8317
      8314      8312      8315      8318      8315      8318      8321      8322
      8315      8318      8321      8323      8315      8318      8321      8324
      8316      8315      8318      8319      8316      8315      8318      8320
      8316      8315      8318      8321      8317      8315      8318      8319
      8317      8315      8318      8320      8317      8315      8318      8321
      8318      8321      8324      8325      8318      8321      8324      8326
      8318      8321      8324      8327      8319      8318      8321      8322
      8319      8318      8321      8323      8319      8318      8321      8324
      8320      8318      8321      8322      8320      8318      8321      8323
      8320      8318      8321      8324      8321      8324      8327      8328
      8321      8324      8327      8329      8321      8324      8327      8330
      8322      8321      8324      8325      8322      8321      8324      8326
      8322      8321      8324      8327      8323      8321      8324      8325
      8323      8321      8324      8326      8323      8321      8324      8327
      8325      8324      8327      8328      8325      8324      8327      8329
      8325      8324      8327      8330      8326      8324      8327      8328
      8326      8324      8327      8329      8326      8324      8327      8330
      8331      8344      8347      8348      8331      8344      8347      8349
      8331      8344      8347      8354      8332      8331      8336      8337
      8332      8331      8336      8338      8332      8331      8336      8339
      8332      8331      8340      8341      8332      8331      8340      8342
      8332      8331      8340      8343      8332      8331      8344      8345
      8332      8331      8344      8346      8332      8331      8344      8347
      8333      8332      8331      8336      8333      8332      8331      8340
      8333      8332      8331      8344      8334      8332      8331      8336
      8334      8332      8331      8340      8334      8332      8331      8344
      8335      8332      8331      8336      8335      8332      8331      8340
      8335      8332      8331      8344      8336      8331      8340      8341
      8336      8331      8340      8342      8336      8331      8340      8343
      8336      8331      8344      8345      8336      8331      8344      8346
      8336      8331      8344      8347      8337      8336      8331      8340
      8337      8336      8331      8344      8338      8336      8331      8340
      8338      8336      8331      8344      8339      8336      8331      8340
      8339      8336      8331      8344      8340      8331      8344      8345
      8340      8331      8344      8346      8340      8331      8344      8347
      8341      8340      8331      8344      8342      8340      8331      8344
      8343      8340      8331      8344      8344      8347      8354      8350
      8345      8344      8347      8348      8345      8344      8347      8349
      8345      8344      8347      8354      8346      8344      8347      8348
      8346      8344      8347      8349      8346      8344      8347      8354
      8347      8354      8350      8351      8347      8354      8350      8352
      8347      8354      8350      8353      8348      8347      8354      8350
      8349      8347      8354      8350      8350      8353      8355      8356
      8350      8353      8355      8357      8350      8353      8355      8360
      8351      8350      8353      8355      8352      8350      8353      8355
      8353      8355      8360      8358      8353      8355      8360      8361
      8353      8355      8360      8362      8354      8350      8353      8355
      8355      8360      8358      8359      8355      8360      8358      8410
      8355      8360      8362      8363      8355      8360      8362      8364
      8355      8360      8362      8366      8356      8355      8360      8358
      8356      8355      8360      8361      8356      8355      8360      8362
      8357      8355      8360      8358      8357      8355      8360      8361
      8357      8355      8360      8362      8358      8360      8362      8363
      8358      8360      8362      8364      8358      8360      8362      8366
      8358      8410      8412      8413      8358      8410      8412      8414
      8358      8410      8412      8415      8359      8358      8360      8361
      8359      8358      8360      8362      8359      8358      8410      8411
      8359      8358      8410      8412      8360      8358      8410      8411
      8360      8358      8410      8412      8360      8362      8364      8365
      8360      8362      8366      8367      8360      8362      8366      8368
      8361      8360      8358      8410      8361      8360      8362      8363
      8361      8360      8362      8364      8361      8360      8362      8366
      8362      8360      8358      8410      8362      8366      8368      8369
      8362      8366      8368      8370      8363      8362      8364      8365
      8363      8362      8366      8367      8363      8362      8366      8368
      8364      8362      8366      8367      8364      8362      8366      8368
      8365      8364      8362      8366      8366      8368      8370      8371
      8366      8368      8370      8372      8366      8368      8370      8373
      8367      8366      8368      8369      8367      8366      8368      8370
      8368      8370      8373      8374      8368      8370      8373      8375
      8368      8370      8373      8376      8369      8368      8370      8371
      8369      8368      8370      8372      8369      8368      8370      8373
      8370      8373      8376      8377      8370      8373      8376      8378
      8370      8373      8376      8379      8371      8370      8373      8374
      8371      8370      8373      8375      8371      8370      8373      8376
      8372      8370      8373      8374      8372      8370      8373      8375
      8372      8370      8373      8376      8373      8376      8379      8380
      8373      8376      8379      8381      8373      8376      8379      8382
      8374      8373      8376      8377      8374      8373      8376      8378
      8374      8373      8376      8379      8375      8373      8376      8377
      8375      8373      8376      8378      8375      8373      8376      8379
      8376      8379      8382      8383      8376      8379      8382      8384
      8376      8379      8382      8385      8377      8376      8379      8380
      8377      8376      8379      8381      8377      8376      8379      8382
      8378      8376      8379      8380      8378      8376      8379      8381
      8378      8376      8379      8382      8379      8382      8385      8386
      8379      8382      8385      8387      8379      8382      8385      8388
      8380      8379      8382      8383      8380      8379      8382      8384
      8380      8379      8382      8385      8381      8379      8382      8383
      8381      8379      8382      8384      8381      8379      8382      8385
      8382      8385      8388      8389      8382      8385      8388      8390
      8382      8385      8388      8391      8383      8382      8385      8386
      8383      8382      8385      8387      8383      8382      8385      8388
      8384      8382      8385      8386      8384      8382      8385      8387
      8384      8382      8385      8388      8385      8388      8391      8392
      8385      8388      8391      8393      8385      8388      8391      8394
      8386      8385      8388      8389      8386      8385      8388      8390
      8386      8385      8388      8391      8387      8385      8388      8389
      8387      8385      8388      8390      8387      8385      8388      8391
      8388      8391      8394      8395      8388      8391      8394      8396
      8388      8391      8394      8397      8389      8388      8391      8392
      8389      8388      8391      8393      8389      8388      8391      8394
      8390      8388      8391      8392      8390      8388      8391      8393
      8390      8388      8391      8394      8391      8394      8397      8398
      8391      8394      8397      8399      8391      8394      8397      8400
      8392      8391      8394      8395      8392      8391      8394      8396
      8392      8391      8394      8397      8393      8391      8394      8395
      8393      8391      8394      8396      8393      8391      8394      8397
      8394      8397      8400      8401      8394      8397      8400      8402
      8394      8397      8400      8403      8395      8394      8397      8398
      8395      8394      8397      8399      8395      8394      8397      8400
      8396      8394      8397      8398      8396      8394      8397      8399
      8396      8394      8397      8400      8397      8400      8403      8404
      8397      8400      8403      8405      8397      8400      8403      8406
      8398      8397      8400      8401      8398      8397      8400      8402
      8398      8397      8400      8403      8399      8397      8400      8401
      8399      8397      8400      8402      8399      8397      8400      8403
      8400      8403      8406      8407      8400      8403      8406      8408
      8400      8403      8406      8409      8401      8400      8403      8404
      8401      8400      8403      8405      8401      8400      8403      8406
      8402      8400      8403      8404      8402      8400      8403      8405
      8402      8400      8403      8406      8404      8403      8406      8407
      8404      8403      8406      8408      8404      8403      8406      8409
      8405      8403      8406      8407      8405      8403      8406      8408
      8405      8403      8406      8409      8410      8412      8415      8416
      8410      8412      8415      8417      8410      8412      8415      8418
      8411      8410      8412      8413      8411      8410      8412      8414
      8411      8410      8412      8415      8412      8415      8418      8419
      8412      8415      8418      8420      8412      8415      8418      8421
      8413      8412      8415      8416      8413      8412      8415      8417
      8413      8412      8415      8418      8414      8412      8415      8416
      8414      8412      8415      8417      8414      8412      8415      8418
      8415      8418      8421      8422      8415      8418      8421      8423
      8415      8418      8421      8424      8416      8415      8418      8419
      8416      8415      8418      8420      8416      8415      8418      8421
      8417      8415      8418      8419      8417      8415      8418      8420
      8417      8415      8418      8421      8418      8421      8424      8425
      8418      8421      8424      8426      8418      8421      8424      8427
      8419      8418      8421      8422      8419      8418      8421      8423
      8419      8418      8421      8424      8420      8418      8421      8422
      8420      8418      8421      8423      8420      8418      8421      8424
      8421      8424      8427      8428      8421      8424      8427      8429
      8421      8424      8427      8430      8422      8421      8424      8425
      8422      8421      8424      8426      8422      8421      8424      8427
      8423      8421      8424      8425      8423      8421      8424      8426
      8423      8421      8424      8427      8424      8427      8430      8431
      8424      8427      8430      8432      8424      8427      8430      8433
      8425      8424      8427      8428      8425      8424      8427      8429
      8425      8424      8427      8430      8426      8424      8427      8428
      8426      8424      8427      8429      8426      8424      8427      8430
      8427      8430      8433      8434      8427      8430      8433      8435
      8428      8427      8430      8431      8428      8427      8430      8432
      8428      8427      8430      8433      8429      8427      8430      8431
      8429      8427      8430      8432      8429      8427      8430      8433
      8430      8433      8435      8436      8430      8433      8435      8437
      8431      8430      8433      8434      8431      8430      8433      8435
      8432      8430      8433      8434      8432      8430      8433      8435
      8433      8435      8437      8438      8433      8435      8437      8439
      8433      8435      8437      8440      8434      8433      8435      8436
      8434      8433      8435      8437      8435      8437      8440      8441
      8435      8437      8440      8442      8435      8437      8440      8443
      8436      8435      8437      8438      8436      8435      8437      8439
      8436      8435      8437      8440      8437      8440      8443      8444
      8437      8440      8443      8445      8437      8440      8443      8446
      8438      8437      8440      8441      8438      8437      8440      8442
      8438      8437      8440      8443      8439      8437      8440      8441
      8439      8437      8440      8442      8439      8437      8440      8443
      8440      8443      8446      8447      8440      8443      8446      8448
      8440      8443      8446      8449      8441      8440      8443      8444
      8441      8440      8443      8445      8441      8440      8443      8446
      8442      8440      8443      8444      8442      8440      8443      8445
      8442      8440      8443      8446      8443      8446      8449      8450
      8443      8446      8449      8451      8443      8446      8449      8452
      8444      8443      8446      8447      8444      8443      8446      8448
      8444      8443      8446      8449      8445      8443      8446      8447
      8445      8443      8446      8448      8445      8443      8446      8449
      8446      8449      8452      8453      8446      8449      8452      8454
      8446      8449      8452      8455      8447      8446      8449      8450
      8447      8446      8449      8451      8447      8446      8449      8452
      8448      8446      8449      8450      8448      8446      8449      8451
      8448      8446      8449      8452      8449      8452      8455      8456
      8449      8452      8455      8457      8449      8452      8455      8458
      8450      8449      8452      8453      8450      8449      8452      8454
      8450      8449      8452      8455      8451      8449      8452      8453
      8451      8449      8452      8454      8451      8449      8452      8455
      8452      8455      8458      8459      8452      8455      8458      8460
      8452      8455      8458      8461      8453      8452      8455      8456
      8453      8452      8455      8457      8453      8452      8455      8458
      8454      8452      8455      8456      8454      8452      8455      8457
      8454      8452      8455      8458      8456      8455      8458      8459
      8456      8455      8458      8460      8456      8455      8458      8461
      8457      8455      8458      8459      8457      8455      8458      8460
      8457      8455      8458      8461      8462      8466      8468      8469
      8462      8466      8468      8470      8462      8466      8471      8472
      8462      8466      8471      8473      8462      8466      8471      8477
      8463      8462      8466      8467      8463      8462      8466      8468
      8463      8462      8466      8471      8464      8462      8466      8467
      8464      8462      8466      8468      8464      8462      8466      8471
      8465      8462      8466      8467      8465      8462      8466      8468
      8465      8462      8466      8471      8466      8471      8477      8474
      8467      8466      8468      8469      8467      8466      8468      8470
      8467      8466      8471      8472      8467      8466      8471      8473
      8467      8466      8471      8477      8468      8466      8471      8472
      8468      8466      8471      8473      8468      8466      8471      8477
      8469      8468      8466      8471      8470      8468      8466      8471
      8471      8477      8474      8475      8471      8477      8474      8476
      8471      8477      8474      8478      8472      8471      8477      8474
      8473      8471      8477      8474      8474      8478      8479      8480
      8474      8478      8479      8481      8474      8478      8479      8482
      8475      8474      8478      8479      8476      8474      8478      8479
      8477      8474      8478      8479      8478      8479      8482      8483
      8478      8479      8482      8484      8478      8479      8482      8490
      8479      8482      8484      8485      8479      8482      8490      8491
      8479      8482      8490      8492      8479      8482      8490      8493
      8480      8479      8482      8483      8480      8479      8482      8484
      8480      8479      8482      8490      8481      8479      8482      8483
      8481      8479      8482      8484      8481      8479      8482      8490
      8482      8484      8485      8486      8482      8484      8485      8487
      8482      8490      8493      8494      8483      8482      8484      8485
      8483      8482      8490      8491      8483      8482      8490      8492
      8483      8482      8490      8493      8484      8482      8490      8491
      8484      8482      8490      8492      8484      8482      8490      8493
      8484      8485      8487      8488      8484      8485      8487      8489
      8484      8485      8487      8499      8485      8484      8482      8490
      8485      8487      8499      8500      8485      8487      8499      8501
      8485      8487      8499      8502      8486      8485      8487      8488
      8486      8485      8487      8489      8486      8485      8487      8499
      8487      8499      8502      8503      8487      8499      8502      8504
      8487      8499      8502      8505      8488      8487      8499      8500
      8488      8487      8499      8501      8488      8487      8499      8502
      8489      8487      8499      8500      8489      8487      8499      8501
      8489      8487      8499      8502      8490      8493      8494      8495
      8490      8493      8494      8496      8491      8490      8493      8494
      8492      8490      8493      8494      8493      8494      8496      8497
      8493      8494      8496      8498      8493      8494      8496      8546
      8494      8496      8546      8547      8494      8496      8546      8548
      8494      8496      8546      8549      8495      8494      8496      8497
      8495      8494      8496      8498      8495      8494      8496      8546
      8496      8546      8549      8550      8496      8546      8549      8551
      8496      8546      8549      8552      8497      8496      8546      8547
      8497      8496      8546      8548      8497      8496      8546      8549
      8498      8496      8546      8547      8498      8496      8546      8548
      8498      8496      8546      8549      8499      8502      8505      8506
      8499      8502      8505      8507      8500      8499      8502      8503
      8500      8499      8502      8504      8500      8499      8502      8505
      8501      8499      8502      8503      8501      8499      8502      8504
      8501      8499      8502      8505      8502      8505      8507      8508
      8502      8505      8507      8509      8503      8502      8505      8506
      8503      8502      8505      8507      8504      8502      8505      8506
      8504      8502      8505      8507      8505      8507      8509      8510
      8505      8507      8509      8511      8505      8507      8509      8512
      8506      8505      8507      8508      8506      8505      8507      8509
      8507      8509      8512      8513      8507      8509      8512      8514
      8508      8507      8509      8510      8508      8507      8509      8511
      8508      8507      8509      8512      8509      8512      8514      8515
      8509      8512      8514      8516      8510      8509      8512      8513
      8510      8509      8512      8514      8511      8509      8512      8513
      8511      8509      8512      8514      8512      8514      8516      8517
      8512      8514      8516      8518      8512      8514      8516      8519
      8513      8512      8514      8515      8513      8512      8514      8516
      8514      8516      8519      8520      8514      8516      8519      8521
      8515      8514      8516      8517      8515      8514      8516      8518
      8515      8514      8516      8519      8516      8519      8521      8522
      8516      8519      8521      8523      8517      8516      8519      8520
      8517      8516      8519      8521      8518      8516      8519      8520
      8518      8516      8519      8521      8519      8521      8523      8524
      8519      8521      8523      8525      8519      8521      8523      8526
      8520      8519      8521      8522      8520      8519      8521      8523
      8521      8523      8526      8527      8521      8523      8526      8528
      8522      8521      8523      8524      8522      8521      8523      8525
      8522      8521      8523      8526      8523      8526      8528      8529
      8523      8526      8528      8530      8524      8523      8526      8527
      8524      8523      8526      8528      8525      8523      8526      8527
      8525      8523      8526      8528      8526      8528      8530      8531
      8526      8528      8530      8532      8526      8528      8530      8533
      8527      8526      8528      8529      8527      8526      8528      8530
      8528      8530      8533      8534      8528      8530      8533      8535
      8528      8530      8533      8536      8529      8528      8530      8531
      8529      8528      8530      8532      8529      8528      8530      8533
      8530      8533      8536      8537      8530      8533      8536      8538
      8530      8533      8536      8539      8531      8530      8533      8534
      8531      8530      8533      8535      8531      8530      8533      8536
      8532      8530      8533      8534      8532      8530      8533      8535
      8532      8530      8533      8536      8533      8536      8539      8540
      8533      8536      8539      8541      8533      8536      8539      8542
      8534      8533      8536      8537      8534      8533      8536      8538
      8534      8533      8536      8539      8535      8533      8536      8537
      8535      8533      8536      8538      8535      8533      8536      8539
      8536      8539      8542      8543      8536      8539      8542      8544
      8536      8539      8542      8545      8537      8536      8539      8540
      8537      8536      8539      8541      8537      8536      8539      8542
      8538      8536      8539      8540      8538      8536      8539      8541
      8538      8536      8539      8542      8540      8539      8542      8543
      8540      8539      8542      8544      8540      8539      8542      8545
      8541      8539      8542      8543      8541      8539      8542      8544
      8541      8539      8542      8545      8546      8549      8552      8553
      8546      8549      8552      8554      8546      8549      8552      8555
      8547      8546      8549      8550      8547      8546      8549      8551
      8547      8546      8549      8552      8548      8546      8549      8550
      8548      8546      8549      8551      8548      8546      8549      8552
      8549      8552      8555      8556      8549      8552      8555      8557
      8549      8552      8555      8558      8550      8549      8552      8553
      8550      8549      8552      8554      8550      8549      8552      8555
      8551      8549      8552      8553      8551      8549      8552      8554
      8551      8549      8552      8555      8552      8555      8558      8559
      8552      8555      8558      8560      8552      8555      8558      8561
      8553      8552      8555      8556      8553      8552      8555      8557
      8553      8552      8555      8558      8554      8552      8555      8556
      8554      8552      8555      8557      8554      8552      8555      8558
      8555      8558      8561      8562      8555      8558      8561      8563
      8555      8558      8561      8564      8556      8555      8558      8559
      8556      8555      8558      8560      8556      8555      8558      8561
      8557      8555      8558      8559      8557      8555      8558      8560
      8557      8555      8558      8561      8558      8561      8564      8565
      8558      8561      8564      8566      8558      8561      8564      8567
      8559      8558      8561      8562      8559      8558      8561      8563
      8559      8558      8561      8564      8560      8558      8561      8562
      8560      8558      8561      8563      8560      8558      8561      8564
      8561      8564      8567      8568      8561      8564      8567      8569
      8561      8564      8567      8570      8562      8561      8564      8565
      8562      8561      8564      8566      8562      8561      8564      8567
      8563      8561      8564      8565      8563      8561      8564      8566
      8563      8561      8564      8567      8564      8567      8570      8571
      8564      8567      8570      8572      8564      8567      8570      8573
      8565      8564      8567      8568      8565      8564      8567      8569
      8565      8564      8567      8570      8566      8564      8567      8568
      8566      8564      8567      8569      8566      8564      8567      8570
      8567      8570      8573      8574      8567      8570      8573      8575
      8567      8570      8573      8576      8568      8567      8570      8571
      8568      8567      8570      8572      8568      8567      8570      8573
      8569      8567      8570      8571      8569      8567      8570      8572
      8569      8567      8570      8573      8570      8573      8576      8577
      8570      8573      8576      8578      8570      8573      8576      8579
      8571      8570      8573      8574      8571      8570      8573      8575
      8571      8570      8573      8576      8572      8570      8573      8574
      8572      8570      8573      8575      8572      8570      8573      8576
      8573      8576      8579      8580      8573      8576      8579      8581
      8573      8576      8579      8582      8574      8573      8576      8577
      8574      8573      8576      8578      8574      8573      8576      8579
      8575      8573      8576      8577      8575      8573      8576      8578
      8575      8573      8576      8579      8576      8579      8582      8583
      8576      8579      8582      8584      8576      8579      8582      8585
      8577      8576      8579      8580      8577      8576      8579      8581
      8577      8576      8579      8582      8578      8576      8579      8580
      8578      8576      8579      8581      8578      8576      8579      8582
      8579      8582      8585      8586      8579      8582      8585      8587
      8579      8582      8585      8588      8580      8579      8582      8583
      8580      8579      8582      8584      8580      8579      8582      8585
      8581      8579      8582      8583      8581      8579      8582      8584
      8581      8579      8582      8585      8582      8585      8588      8589
      8582      8585      8588      8590      8582      8585      8588      8591
      8583      8582      8585      8586      8583      8582      8585      8587
      8583      8582      8585      8588      8584      8582      8585      8586
      8584      8582      8585      8587      8584      8582      8585      8588
      8585      8588      8591      8592      8585      8588      8591      8593
      8585      8588      8591      8594      8586      8585      8588      8589
      8586      8585      8588      8590      8586      8585      8588      8591
      8587      8585      8588      8589      8587      8585      8588      8590
      8587      8585      8588      8591      8589      8588      8591      8592
      8589      8588      8591      8593      8589      8588      8591      8594
      8590      8588      8591      8592      8590      8588      8591      8593
      8590      8588      8591      8594      8595      8599      8602      8603
      8595      8599      8602      8633      8595      8641      8638      8633
      8595      8641      8638      8639      8595      8641      8638      8640
      8596      8595      8597      8598      8596      8595      8599      8600
      8596      8595      8599      8601      8596      8595      8599      8602
      8596      8595      8641      8638      8596      8595      8641      8642
      8596      8595      8641      8643      8597      8595      8599      8600
      8597      8595      8599      8601      8597      8595      8599      8602
      8597      8595      8641      8638      8597      8595      8641      8642
      8597      8595      8641      8643      8598      8597      8595      8599
      8598      8597      8595      8641      8599      8595      8641      8638
      8599      8595      8641      8642      8599      8595      8641      8643
      8599      8602      8603      8604      8599      8602      8603      8605
      8599      8602      8633      8631      8599      8602      8633      8634
      8599      8602      8633      8638      8600      8599      8595      8641
      8600      8599      8602      8603      8600      8599      8602      8633
      8601      8599      8595      8641      8601      8599      8602      8603
      8601      8599      8602      8633      8602      8599      8595      8641
      8602      8603      8605      8606      8602      8603      8605      8607
      8602      8603      8605      8608      8602      8633      8631      8608
      8602      8633      8631      8628      8602      8633      8631      8632
      8602      8633      8634      8635      8602      8633      8634      8636
      8602      8633      8634      8637      8602      8633      8638      8639
      8602      8633      8638      8640      8602      8633      8638      8641
      8603      8602      8633      8631      8603      8602      8633      8634
      8603      8602      8633      8638      8603      8605      8608      8609
      8603      8605      8608      8610      8603      8605      8608      8631
      8604      8603      8602      8633      8604      8603      8605      8606
      8604      8603      8605      8607      8604      8603      8605      8608
      8605      8603      8602      8633      8605      8608      8610      8611
      8605      8608      8610      8612      8605      8608      8610      8620
      8605      8608      8631      8628      8605      8608      8631      8632
      8605      8608      8631      8633      8606      8605      8608      8609
      8606      8605      8608      8610      8606      8605      8608      8631
      8607      8605      8608      8609      8607      8605      8608      8610
      8607      8605      8608      8631      8608      8610      8612      8613
      8608      8610      8612      8614      8608      8610      8612      8615
      8608      8610      8620      8618      8608      8610      8620      8621
      8608      8610      8620      8625      8608      8631      8628      8625
      8608      8631      8628      8629      8608      8631      8628      8630
      8608      8631      8633      8634      8608      8631      8633      8638
      8609      8608      8610      8611      8609      8608      8610      8612
      8609      8608      8610      8620      8609      8608      8631      8628
      8609      8608      8631      8632      8609      8608      8631      8633
      8610      8608      8631      8628      8610      8608      8631      8632
      8610      8608      8631      8633      8610      8612      8615      8616
      8610      8612      8615      8617      8610      8612      8615      8618
      8610      8620      8618      8615      8610      8620      8618      8619
      8610      8620      8618      8644      8610      8620      8621      8622
      8610      8620      8621      8623      8610      8620      8621      8624
      8610      8620      8625      8626      8610      8620      8625      8627
      8610      8620      8625      8628      8611      8610      8608      8631
      8611      8610      8612      8613      8611      8610      8612      8614
      8611      8610      8612      8615      8611      8610      8620      8618
      8611      8610      8620      8621      8611      8610      8620      8625
      8612      8610      8608      8631      8612      8610      8620      8618
      8612      8610      8620      8621      8612      8610      8620      8625
      8612      8615      8618      8619      8612      8615      8618      8620
      8612      8615      8618      8644      8613      8612      8610      8620
      8613      8612      8615      8616      8613      8612      8615      8617
      8613      8612      8615      8618      8614      8612      8610      8620
      8614      8612      8615      8616      8614      8612      8615      8617
      8614      8612      8615      8618      8615      8612      8610      8620
      8615      8618      8620      8621      8615      8618      8620      8625
      8615      8618      8644      8645      8615      8618      8644      8646
      8615      8618      8644      8650      8616      8615      8618      8619
      8616      8615      8618      8620      8616      8615      8618      8644
      8617      8615      8618      8619      8617      8615      8618      8620
      8617      8615      8618      8644      8618      8620      8621      8622
      8618      8620      8621      8623      8618      8620      8621      8624
      8618      8620      8625      8626      8618      8620      8625      8627
      8618      8620      8625      8628      8618      8644      8646      8647
      8618      8644      8646      8648      8618      8644      8646      8649
      8618      8644      8650      8651      8618      8644      8650      8652
      8618      8644      8650      8653      8619      8618      8620      8621
      8619      8618      8620      8625      8619      8618      8644      8645
      8619      8618      8644      8646      8619      8618      8644      8650
      8620      8610      8608      8631      8620      8618      8644      8645
      8620      8618      8644      8646      8620      8618      8644      8650
      8620      8625      8628      8629      8620      8625      8628      8630
      8620      8625      8628      8631      8621      8620      8618      8644
      8621      8620      8625      8626      8621      8620      8625      8627
      8621      8620      8625      8628      8622      8621      8620      8625
      8623      8621      8620      8625      8624      8621      8620      8625
      8625      8620      8618      8644      8625      8628      8631      8632
      8625      8628      8631      8633      8626      8625      8628      8629
      8626      8625      8628      8630      8626      8625      8628      8631
      8627      8625      8628      8629      8627      8625      8628      8630
      8627      8625      8628      8631      8628      8631      8633      8634
      8628      8631      8633      8638      8629      8628      8631      8632
      8629      8628      8631      8633      8630      8628      8631      8632
      8630      8628      8631      8633      8631      8633      8634      8635
      8631      8633      8634      8636      8631      8633      8634      8637
      8631      8633      8638      8639      8631      8633      8638      8640
      8631      8633      8638      8641      8632      8631      8633      8634
      8632      8631      8633      8638      8633      8638      8641      8642
      8633      8638      8641      8643      8634      8633      8638      8639
      8634      8633      8638      8640      8634      8633      8638      8641
      8635      8634      8633      8638      8636      8634      8633      8638
      8637      8634      8633      8638      8639      8638      8641      8642
      8639      8638      8641      8643      8640      8638      8641      8642
      8640      8638      8641      8643      8644      8650      8653      8654
      8644      8650      8653      8655      8644      8650      8653      8656
      8645      8644      8646      8647      8645      8644      8646      8648
      8645      8644      8646      8649      8645      8644      8650      8651
      8645      8644      8650      8652      8645      8644      8650      8653
      8646      8644      8650      8651      8646      8644      8650      8652
      8646      8644      8650      8653      8647      8646      8644      8650
      8648      8646      8644      8650      8649      8646      8644      8650
      8650      8653      8656      8657      8650      8653      8656      8658
      8650      8653      8656      8659      8651      8650      8653      8654
      8651      8650      8653      8655      8651      8650      8653      8656
      8652      8650      8653      8654      8652      8650      8653      8655
      8652      8650      8653      8656      8653      8656      8659      8660
      8653      8656      8659      8661      8653      8656      8659      8665
      8654      8653      8656      8657      8654      8653      8656      8658
      8654      8653      8656      8659      8655      8653      8656      8657
      8655      8653      8656      8658      8655      8653      8656      8659
      8656      8659      8661      8662      8656      8659      8661      8663
      8656      8659      8661      8664      8656      8659      8665      8666
      8656      8659      8665      8667      8656      8659      8665      8668
      8657      8656      8659      8660      8657      8656      8659      8661
      8657      8656      8659      8665      8658      8656      8659      8660
      8658      8656      8659      8661      8658      8656      8659      8665
      8660      8659      8661      8662      8660      8659      8661      8663
      8660      8659      8661      8664      8660      8659      8665      8666
      8660      8659      8665      8667      8660      8659      8665      8668
      8661      8659      8665      8666      8661      8659      8665      8667
      8661      8659      8665      8668      8662      8661      8659      8665
      8663      8661      8659      8665      8664      8661      8659      8665
      8669      8682      8685      8686      8669      8682      8685      8687
      8669      8682      8685      8691      8670      8669      8674      8675
      8670      8669      8674      8676      8670      8669      8674      8677
      8670      8669      8678      8679      8670      8669      8678      8680
      8670      8669      8678      8681      8670      8669      8682      8683
      8670      8669      8682      8684      8670      8669      8682      8685
      8671      8670      8669      8674      8671      8670      8669      8678
      8671      8670      8669      8682      8672      8670      8669      8674
      8672      8670      8669      8678      8672      8670      8669      8682
      8673      8670      8669      8674      8673      8670      8669      8678
      8673      8670      8669      8682      8674      8669      8678      8679
      8674      8669      8678      8680      8674      8669      8678      8681
      8674      8669      8682      8683      8674      8669      8682      8684
      8674      8669      8682      8685      8675      8674      8669      8678
      8675      8674      8669      8682      8676      8674      8669      8678
      8676      8674      8669      8682      8677      8674      8669      8678
      8677      8674      8669      8682      8678      8669      8682      8683
      8678      8669      8682      8684      8678      8669      8682      8685
      8679      8678      8669      8682      8680      8678      8669      8682
      8681      8678      8669      8682      8682      8685      8691      8688
      8683      8682      8685      8686      8683      8682      8685      8687
      8683      8682      8685      8691      8684      8682      8685      8686
      8684      8682      8685      8687      8684      8682      8685      8691
      8685      8691      8688      8689      8685      8691      8688      8690
      8685      8691      8688      8692      8686      8685      8691      8688
      8687      8685      8691      8688      8688      8692      8693      8694
      8688      8692      8693      8695      8688      8692      8693      8696
      8689      8688      8692      8693      8690      8688      8692      8693
      8691      8688      8692      8693      8692      8693      8696      8697
      8692      8693      8696      8698      8692      8693      8696      8704
      8693      8696      8698      8699      8693      8696      8704      8705
      8693      8696      8704      8706      8693      8696      8704      8707
      8694      8693      8696      8697      8694      8693      8696      8698
      8694      8693      8696      8704      8695      8693      8696      8697
      8695      8693      8696      8698      8695      8693      8696      8704
      8696      8698      8699      8700      8696      8698      8699      8701
      8696      8704      8707      8708      8697      8696      8698      8699
      8697      8696      8704      8705      8697      8696      8704      8706
      8697      8696      8704      8707      8698      8696      8704      8705
      8698      8696      8704      8706      8698      8696      8704      8707
      8698      8699      8701      8702      8698      8699      8701      8703
      8698      8699      8701      8713      8699      8698      8696      8704
      8699      8701      8713      8714      8699      8701      8713      8715
      8699      8701      8713      8716      8700      8699      8701      8702
      8700      8699      8701      8703      8700      8699      8701      8713
      8701      8713      8716      8717      8701      8713      8716      8718
      8701      8713      8716      8719      8702      8701      8713      8714
      8702      8701      8713      8715      8702      8701      8713      8716
      8703      8701      8713      8714      8703      8701      8713      8715
      8703      8701      8713      8716      8704      8707      8708      8709
      8704      8707      8708      8710      8705      8704      8707      8708
      8706      8704      8707      8708      8707      8708      8710      8711
      8707      8708      8710      8712      8707      8708      8710      8758
      8708      8710      8758      8759      8708      8710      8758      8760
      8708      8710      8758      8761      8709      8708      8710      8711
      8709      8708      8710      8712      8709      8708      8710      8758
      8710      8758      8761      8762      8710      8758      8761      8763
      8710      8758      8761      8764      8711      8710      8758      8759
      8711      8710      8758      8760      8711      8710      8758      8761
      8712      8710      8758      8759      8712      8710      8758      8760
      8712      8710      8758      8761      8713      8716      8719      8720
      8713      8716      8719      8721      8713      8716      8719      8722
      8714      8713      8716      8717      8714      8713      8716      8718
      8714      8713      8716      8719      8715      8713      8716      8717
      8715      8713      8716      8718      8715      8713      8716      8719
      8716      8719      8722      8723      8716      8719      8722      8724
      8716      8719      8722      8725      8717      8716      8719      8720
      8717      8716      8719      8721      8717      8716      8719      8722
      8718      8716      8719      8720      8718      8716      8719      8721
      8718      8716      8719      8722      8719      8722      8725      8726
      8719      8722      8725      8727      8719      8722      8725      8728
      8720      8719      8722      8723      8720      8719      8722      8724
      8720      8719      8722      8725      8721      8719      8722      8723
      8721      8719      8722      8724      8721      8719      8722      8725
      8722      8725      8728      8729      8722      8725      8728      8730
      8722      8725      8728      8731      8723      8722      8725      8726
      8723      8722      8725      8727      8723      8722      8725      8728
      8724      8722      8725      8726      8724      8722      8725      8727
      8724      8722      8725      8728      8725      8728      8731      8732
      8725      8728      8731      8733      8726      8725      8728      8729
      8726      8725      8728      8730      8726      8725      8728      8731
      8727      8725      8728      8729      8727      8725      8728      8730
      8727      8725      8728      8731      8728      8731      8733      8734
      8728      8731      8733      8735      8729      8728      8731      8732
      8729      8728      8731      8733      8730      8728      8731      8732
      8730      8728      8731      8733      8731      8733      8735      8736
      8731      8733      8735      8737      8731      8733      8735      8738
      8732      8731      8733      8734      8732      8731      8733      8735
      8733      8735      8738      8739      8733      8735      8738      8740
      8734      8733      8735      8736      8734      8733      8735      8737
      8734      8733      8735      8738      8735      8738      8740      8741
      8735      8738      8740      8742      8736      8735      8738      8739
      8736      8735      8738      8740      8737      8735      8738      8739
      8737      8735      8738      8740      8738      8740      8742      8743
      8738      8740      8742      8744      8738      8740      8742      8745
      8739      8738      8740      8741      8739      8738      8740      8742
      8740      8742      8745      8746      8740      8742      8745      8747
      8740      8742      8745      8748      8741      8740      8742      8743
      8741      8740      8742      8744      8741      8740      8742      8745
      8742      8745      8748      8749      8742      8745      8748      8750
      8742      8745      8748      8751      8743      8742      8745      8746
      8743      8742      8745      8747      8743      8742      8745      8748
      8744      8742      8745      8746      8744      8742      8745      8747
      8744      8742      8745      8748      8745      8748      8751      8752
      8745      8748      8751      8753      8745      8748      8751      8754
      8746      8745      8748      8749      8746      8745      8748      8750
      8746      8745      8748      8751      8747      8745      8748      8749
      8747      8745      8748      8750      8747      8745      8748      8751
      8748      8751      8754      8755      8748      8751      8754      8756
      8748      8751      8754      8757      8749      8748      8751      8752
      8749      8748      8751      8753      8749      8748      8751      8754
      8750      8748      8751      8752      8750      8748      8751      8753
      8750      8748      8751      8754      8752      8751      8754      8755
      8752      8751      8754      8756      8752      8751      8754      8757
      8753      8751      8754      8755      8753      8751      8754      8756
      8753      8751      8754      8757      8758      8761      8764      8765
      8758      8761      8764      8766      8758      8761      8764      8767
      8759      8758      8761      8762      8759      8758      8761      8763
      8759      8758      8761      8764      8760      8758      8761      8762
      8760      8758      8761      8763      8760      8758      8761      8764
      8761      8764      8767      8768      8761      8764      8767      8769
      8761      8764      8767      8770      8762      8761      8764      8765
      8762      8761      8764      8766      8762      8761      8764      8767
      8763      8761      8764      8765      8763      8761      8764      8766
      8763      8761      8764      8767      8764      8767      8770      8771
      8764      8767      8770      8772      8764      8767      8770      8773
      8765      8764      8767      8768      8765      8764      8767      8769
      8765      8764      8767      8770      8766      8764      8767      8768
      8766      8764      8767      8769      8766      8764      8767      8770
      8767      8770      8773      8774      8767      8770      8773      8775
      8767      8770      8773      8776      8768      8767      8770      8771
      8768      8767      8770      8772      8768      8767      8770      8773
      8769      8767      8770      8771      8769      8767      8770      8772
      8769      8767      8770      8773      8770      8773      8776      8777
      8770      8773      8776      8778      8770      8773      8776      8779
      8771      8770      8773      8774      8771      8770      8773      8775
      8771      8770      8773      8776      8772      8770      8773      8774
      8772      8770      8773      8775      8772      8770      8773      8776
      8773      8776      8779      8780      8773      8776      8779      8781
      8773      8776      8779      8782      8774      8773      8776      8777
      8774      8773      8776      8778      8774      8773      8776      8779
      8775      8773      8776      8777      8775      8773      8776      8778
      8775      8773      8776      8779      8776      8779      8782      8783
      8776      8779      8782      8784      8776      8779      8782      8785
      8777      8776      8779      8780      8777      8776      8779      8781
      8777      8776      8779      8782      8778      8776      8779      8780
      8778      8776      8779      8781      8778      8776      8779      8782
      8779      8782      8785      8786      8779      8782      8785      8787
      8779      8782      8785      8788      8780      8779      8782      8783
      8780      8779      8782      8784      8780      8779      8782      8785
      8781      8779      8782      8783      8781      8779      8782      8784
      8781      8779      8782      8785      8782      8785      8788      8789
      8782      8785      8788      8790      8782      8785      8788      8791
      8783      8782      8785      8786      8783      8782      8785      8787
      8783      8782      8785      8788      8784      8782      8785      8786
      8784      8782      8785      8787      8784      8782      8785      8788
      8785      8788      8791      8792      8785      8788      8791      8793
      8785      8788      8791      8794      8786      8785      8788      8789
      8786      8785      8788      8790      8786      8785      8788      8791
      8787      8785      8788      8789      8787      8785      8788      8790
      8787      8785      8788      8791      8788      8791      8794      8795
      8788      8791      8794      8796      8788      8791      8794      8797
      8789      8788      8791      8792      8789      8788      8791      8793
      8789      8788      8791      8794      8790      8788      8791      8792
      8790      8788      8791      8793      8790      8788      8791      8794
      8791      8794      8797      8798      8791      8794      8797      8799
      8791      8794      8797      8800      8792      8791      8794      8795
      8792      8791      8794      8796      8792      8791      8794      8797
      8793      8791      8794      8795      8793      8791      8794      8796
      8793      8791      8794      8797      8794      8797      8800      8801
      8794      8797      8800      8802      8794      8797      8800      8803
      8795      8794      8797      8798      8795      8794      8797      8799
      8795      8794      8797      8800      8796      8794      8797      8798
      8796      8794      8797      8799      8796      8794      8797      8800
      8797      8800      8803      8804      8797      8800      8803      8805
      8797      8800      8803      8806      8798      8797      8800      8801
      8798      8797      8800      8802      8798      8797      8800      8803
      8799      8797      8800      8801      8799      8797      8800      8802
      8799      8797      8800      8803      8801      8800      8803      8804
      8801      8800      8803      8805      8801      8800      8803      8806
      8802      8800      8803      8804      8802      8800      8803      8805
      8802      8800      8803      8806      8807      8811      8813      8814
      8807      8811      8815      8816      8807      8811      8815      8817
      8807      8811      8815      8819      8807      8827      8823      8819
      8807      8827      8823      8824      8807      8827      8823      8825
      8807      8827      8832      8829      8808      8807      8809      8810
      8808      8807      8811      8812      8808      8807      8811      8813
      8808      8807      8811      8815      8808      8807      8827      8823
      8808      8807      8827      8828      8808      8807      8827      8832
      8809      8807      8811      8812      8809      8807      8811      8813
      8809      8807      8811      8815      8809      8807      8827      8823
      8809      8807      8827      8828      8809      8807      8827      8832
      8810      8809      8807      8811      8810      8809      8807      8827
      8811      8807      8827      8823      8811      8807      8827      8828
      8811      8807      8827      8832      8811      8815      8817      8818
      8811      8815      8819      8820      8811      8815      8819      8821
      8811      8815      8819      8823      8812      8811      8807      8827
      8812      8811      8813      8814      8812      8811      8815      8816
      8812      8811      8815      8817      8812      8811      8815      8819
      8813      8811      8807      8827      8813      8811      8815      8816
      8813      8811      8815      8817      8813      8811      8815      8819
      8814      8813      8811      8815      8815      8811      8807      8827
      8815      8819      8821      8822      8815      8819      8823      8824
      8815      8819      8823      8825      8815      8819      8823      8827
      8816      8815      8817      8818      8816      8815      8819      8820
      8816      8815      8819      8821      8816      8815      8819      8823
      8817      8815      8819      8820      8817      8815      8819      8821
      8817      8815      8819      8823      8818      8817      8815      8819
      8819      8823      8825      8826      8819      8823      8827      8828
      8819      8823      8827      8832      8820      8819      8821      8822
      8820      8819      8823      8824      8820      8819      8823      8825
      8820      8819      8823      8827      8821      8819      8823      8824
      8821      8819      8823      8825      8821      8819      8823      8827
      8822      8821      8819      8823      8823      8827      8832      8829
      8824      8823      8825      8826      8824      8823      8827      8828
      8824      8823      8827      8832      8825      8823      8827      8828
      8825      8823      8827      8832      8826      8825      8823      8827
      8827      8832      8829      8830      8827      8832      8829      8831
      8827      8832      8829      8833      8828      8827      8832      8829
      8829      8833      8834      8835      8829      8833      8834      8836
      8829      8833      8834      8837      8830      8829      8833      8834
      8831      8829      8833      8834      8832      8829      8833      8834
      8833      8834      8837      8838      8833      8834      8837      8839
      8833      8834      8837      8845      8834      8837      8839      8840
      8834      8837      8845      8846      8834      8837      8845      8847
      8834      8837      8845      8848      8835      8834      8837      8838
      8835      8834      8837      8839      8835      8834      8837      8845
      8836      8834      8837      8838      8836      8834      8837      8839
      8836      8834      8837      8845      8837      8839      8840      8841
      8837      8839      8840      8842      8837      8845      8848      8849
      8838      8837      8839      8840      8838      8837      8845      8846
      8838      8837      8845      8847      8838      8837      8845      8848
      8839      8837      8845      8846      8839      8837      8845      8847
      8839      8837      8845      8848      8839      8840      8842      8843
      8839      8840      8842      8844      8839      8840      8842      8854
      8840      8839      8837      8845      8840      8842      8854      8855
      8840      8842      8854      8856      8840      8842      8854      8857
      8841      8840      8842      8843      8841      8840      8842      8844
      8841      8840      8842      8854      8842      8854      8857      8858
      8842      8854      8857      8859      8842      8854      8857      8860
      8843      8842      8854      8855      8843      8842      8854      8856
      8843      8842      8854      8857      8844      8842      8854      8855
      8844      8842      8854      8856      8844      8842      8854      8857
      8845      8848      8849      8850      8845      8848      8849      8851
      8846      8845      8848      8849      8847      8845      8848      8849
      8848      8849      8851      8852      8848      8849      8851      8853
      8848      8849      8851      8901      8849      8851      8901      8902
      8849      8851      8901      8903      8849      8851      8901      8904
      8850      8849      8851      8852      8850      8849      8851      8853
      8850      8849      8851      8901      8851      8901      8904      8905
      8851      8901      8904      8906      8851      8901      8904      8907
      8852      8851      8901      8902      8852      8851      8901      8903
      8852      8851      8901      8904      8853      8851      8901      8902
      8853      8851      8901      8903      8853      8851      8901      8904
      8854      8857      8860      8861      8854      8857      8860      8862
      8855      8854      8857      8858      8855      8854      8857      8859
      8855      8854      8857      8860      8856      8854      8857      8858
      8856      8854      8857      8859      8856      8854      8857      8860
      8857      8860      8862      8863      8857      8860      8862      8864
      8858      8857      8860      8861      8858      8857      8860      8862
      8859      8857      8860      8861      8859      8857      8860      8862
      8860      8862      8864      8865      8860      8862      8864      8866
      8860      8862      8864      8867      8861      8860      8862      8863
      8861      8860      8862      8864      8862      8864      8867      8868
      8862      8864      8867      8869      8863      8862      8864      8865
      8863      8862      8864      8866      8863      8862      8864      8867
      8864      8867      8869      8870      8864      8867      8869      8871
      8865      8864      8867      8868      8865      8864      8867      8869
      8866      8864      8867      8868      8866      8864      8867      8869
      8867      8869      8871      8872      8867      8869      8871      8873
      8867      8869      8871      8874      8868      8867      8869      8870
      8868      8867      8869      8871      8869      8871      8874      8875
      8869      8871      8874      8876      8870      8869      8871      8872
      8870      8869      8871      8873      8870      8869      8871      8874
      8871      8874      8876      8877      8871      8874      8876      8878
      8872      8871      8874      8875      8872      8871      8874      8876
      8873      8871      8874      8875      8873      8871      8874      8876
      8874      8876      8878      8879      8874      8876      8878      8880
      8874      8876      8878      8881      8875      8874      8876      8877
      8875      8874      8876      8878      8876      8878      8881      8882
      8876      8878      8881      8883      8877      8876      8878      8879
      8877      8876      8878      8880      8877      8876      8878      8881
      8878      8881      8883      8884      8878      8881      8883      8885
      8879      8878      8881      8882      8879      8878      8881      8883
      8880      8878      8881      8882      8880      8878      8881      8883
      8881      8883      8885      8886      8881      8883      8885      8887
      8881      8883      8885      8888      8882      8881      8883      8884
      8882      8881      8883      8885      8883      8885      8888      8889
      8883      8885      8888      8890      8883      8885      8888      8891
      8884      8883      8885      8886      8884      8883      8885      8887
      8884      8883      8885      8888      8885      8888      8891      8892
      8885      8888      8891      8893      8885      8888      8891      8894
      8886      8885      8888      8889      8886      8885      8888      8890
      8886      8885      8888      8891      8887      8885      8888      8889
      8887      8885      8888      8890      8887      8885      8888      8891
      8888      8891      8894      8895      8888      8891      8894      8896
      8888      8891      8894      8897      8889      8888      8891      8892
      8889      8888      8891      8893      8889      8888      8891      8894
      8890      8888      8891      8892      8890      8888      8891      8893
      8890      8888      8891      8894      8891      8894      8897      8898
      8891      8894      8897      8899      8891      8894      8897      8900
      8892      8891      8894      8895      8892      8891      8894      8896
      8892      8891      8894      8897      8893      8891      8894      8895
      8893      8891      8894      8896      8893      8891      8894      8897
      8895      8894      8897      8898      8895      8894      8897      8899
      8895      8894      8897      8900      8896      8894      8897      8898
      8896      8894      8897      8899      8896      8894      8897      8900
      8901      8904      8907      8908      8901      8904      8907      8909
      8901      8904      8907      8910      8902      8901      8904      8905
      8902      8901      8904      8906      8902      8901      8904      8907
      8903      8901      8904      8905      8903      8901      8904      8906
      8903      8901      8904      8907      8904      8907      8910      8911
      8904      8907      8910      8912      8904      8907      8910      8913
      8905      8904      8907      8908      8905      8904      8907      8909
      8905      8904      8907      8910      8906      8904      8907      8908
      8906      8904      8907      8909      8906      8904      8907      8910
      8907      8910      8913      8914      8907      8910      8913      8915
      8907      8910      8913      8916      8908      8907      8910      8911
      8908      8907      8910      8912      8908      8907      8910      8913
      8909      8907      8910      8911      8909      8907      8910      8912
      8909      8907      8910      8913      8910      8913      8916      8917
      8910      8913      8916      8918      8910      8913      8916      8919
      8911      8910      8913      8914      8911      8910      8913      8915
      8911      8910      8913      8916      8912      8910      8913      8914
      8912      8910      8913      8915      8912      8910      8913      8916
      8913      8916      8919      8920      8913      8916      8919      8921
      8913      8916      8919      8922      8914      8913      8916      8917
      8914      8913      8916      8918      8914      8913      8916      8919
      8915      8913      8916      8917      8915      8913      8916      8918
      8915      8913      8916      8919      8916      8919      8922      8923
      8916      8919      8922      8924      8916      8919      8922      8925
      8917      8916      8919      8920      8917      8916      8919      8921
      8917      8916      8919      8922      8918      8916      8919      8920
      8918      8916      8919      8921      8918      8916      8919      8922
      8919      8922      8925      8926      8919      8922      8925      8927
      8919      8922      8925      8928      8920      8919      8922      8923
      8920      8919      8922      8924      8920      8919      8922      8925
      8921      8919      8922      8923      8921      8919      8922      8924
      8921      8919      8922      8925      8922      8925      8928      8929
      8922      8925      8928      8930      8922      8925      8928      8931
      8923      8922      8925      8926      8923      8922      8925      8927
      8923      8922      8925      8928      8924      8922      8925      8926
      8924      8922      8925      8927      8924      8922      8925      8928
      8925      8928      8931      8932      8925      8928      8931      8933
      8925      8928      8931      8934      8926      8925      8928      8929
      8926      8925      8928      8930      8926      8925      8928      8931
      8927      8925      8928      8929      8927      8925      8928      8930
      8927      8925      8928      8931      8928      8931      8934      8935
      8928      8931      8934      8936      8928      8931      8934      8937
      8929      8928      8931      8932      8929      8928      8931      8933
      8929      8928      8931      8934      8930      8928      8931      8932
      8930      8928      8931      8933      8930      8928      8931      8934
      8931      8934      8937      8938      8931      8934      8937      8939
      8931      8934      8937      8940      8932      8931      8934      8935
      8932      8931      8934      8936      8932      8931      8934      8937
      8933      8931      8934      8935      8933      8931      8934      8936
      8933      8931      8934      8937      8934      8937      8940      8941
      8934      8937      8940      8942      8934      8937      8940      8943
      8935      8934      8937      8938      8935      8934      8937      8939
      8935      8934      8937      8940      8936      8934      8937      8938
      8936      8934      8937      8939      8936      8934      8937      8940
      8937      8940      8943      8944      8937      8940      8943      8945
      8937      8940      8943      8946      8938      8937      8940      8941
      8938      8937      8940      8942      8938      8937      8940      8943
      8939      8937      8940      8941      8939      8937      8940      8942
      8939      8937      8940      8943      8940      8943      8946      8947
      8940      8943      8946      8948      8940      8943      8946      8949
      8941      8940      8943      8944      8941      8940      8943      8945
      8941      8940      8943      8946      8942      8940      8943      8944
      8942      8940      8943      8945      8942      8940      8943      8946
      8944      8943      8946      8947      8944      8943      8946      8948
      8944      8943      8946      8949      8945      8943      8946      8947
      8945      8943      8946      8948      8945      8943      8946      8949
      8950      8963      8966      8967      8950      8963      8966      8968
      8950      8963      8966      8973      8951      8950      8955      8956
      8951      8950      8955      8957      8951      8950      8955      8958
      8951      8950      8959      8960      8951      8950      8959      8961
      8951      8950      8959      8962      8951      8950      8963      8964
      8951      8950      8963      8965      8951      8950      8963      8966
      8952      8951      8950      8955      8952      8951      8950      8959
      8952      8951      8950      8963      8953      8951      8950      8955
      8953      8951      8950      8959      8953      8951      8950      8963
      8954      8951      8950      8955      8954      8951      8950      8959
      8954      8951      8950      8963      8955      8950      8959      8960
      8955      8950      8959      8961      8955      8950      8959      8962
      8955      8950      8963      8964      8955      8950      8963      8965
      8955      8950      8963      8966      8956      8955      8950      8959
      8956      8955      8950      8963      8957      8955      8950      8959
      8957      8955      8950      8963      8958      8955      8950      8959
      8958      8955      8950      8963      8959      8950      8963      8964
      8959      8950      8963      8965      8959      8950      8963      8966
      8960      8959      8950      8963      8961      8959      8950      8963
      8962      8959      8950      8963      8963      8966      8973      8969
      8964      8963      8966      8967      8964      8963      8966      8968
      8964      8963      8966      8973      8965      8963      8966      8967
      8965      8963      8966      8968      8965      8963      8966      8973
      8966      8973      8969      8970      8966      8973      8969      8971
      8966      8973      8969      8972      8967      8966      8973      8969
      8968      8966      8973      8969      8969      8972      8974      8975
      8969      8972      8974      8976      8969      8972      8974      8979
      8970      8969      8972      8974      8971      8969      8972      8974
      8972      8974      8979      8977      8972      8974      8979      8980
      8972      8974      8979      8981      8973      8969      8972      8974
      8974      8979      8977      8978      8974      8979      8977      9029
      8974      8979      8981      8982      8974      8979      8981      8983
      8974      8979      8981      8985      8975      8974      8979      8977
      8975      8974      8979      8980      8975      8974      8979      8981
      8976      8974      8979      8977      8976      8974      8979      8980
      8976      8974      8979      8981      8977      8979      8981      8982
      8977      8979      8981      8983      8977      8979      8981      8985
      8977      9029      9031      9032      8977      9029      9031      9033
      8977      9029      9031      9034      8978      8977      8979      8980
      8978      8977      8979      8981      8978      8977      9029      9030
      8978      8977      9029      9031      8979      8977      9029      9030
      8979      8977      9029      9031      8979      8981      8983      8984
      8979      8981      8985      8986      8979      8981      8985      8987
      8980      8979      8977      9029      8980      8979      8981      8982
      8980      8979      8981      8983      8980      8979      8981      8985
      8981      8979      8977      9029      8981      8985      8987      8988
      8981      8985      8987      8989      8982      8981      8983      8984
      8982      8981      8985      8986      8982      8981      8985      8987
      8983      8981      8985      8986      8983      8981      8985      8987
      8984      8983      8981      8985      8985      8987      8989      8990
      8985      8987      8989      8991      8985      8987      8989      8992
      8986      8985      8987      8988      8986      8985      8987      8989
      8987      8989      8992      8993      8987      8989      8992      8994
      8987      8989      8992      8995      8988      8987      8989      8990
      8988      8987      8989      8991      8988      8987      8989      8992
      8989      8992      8995      8996      8989      8992      8995      8997
      8989      8992      8995      8998      8990      8989      8992      8993
      8990      8989      8992      8994      8990      8989      8992      8995
      8991      8989      8992      8993      8991      8989      8992      8994
      8991      8989      8992      8995      8992      8995      8998      8999
      8992      8995      8998      9000      8992      8995      8998      9001
      8993      8992      8995      8996      8993      8992      8995      8997
      8993      8992      8995      8998      8994      8992      8995      8996
      8994      8992      8995      8997      8994      8992      8995      8998
      8995      8998      9001      9002      8995      8998      9001      9003
      8995      8998      9001      9004      8996      8995      8998      8999
      8996      8995      8998      9000      8996      8995      8998      9001
      8997      8995      8998      8999      8997      8995      8998      9000
      8997      8995      8998      9001      8998      9001      9004      9005
      8998      9001      9004      9006      8998      9001      9004      9007
      8999      8998      9001      9002      8999      8998      9001      9003
      8999      8998      9001      9004      9000      8998      9001      9002
      9000      8998      9001      9003      9000      8998      9001      9004
      9001      9004      9007      9008      9001      9004      9007      9009
      9001      9004      9007      9010      9002      9001      9004      9005
      9002      9001      9004      9006      9002      9001      9004      9007
      9003      9001      9004      9005      9003      9001      9004      9006
      9003      9001      9004      9007      9004      9007      9010      9011
      9004      9007      9010      9012      9004      9007      9010      9013
      9005      9004      9007      9008      9005      9004      9007      9009
      9005      9004      9007      9010      9006      9004      9007      9008
      9006      9004      9007      9009      9006      9004      9007      9010
      9007      9010      9013      9014      9007      9010      9013      9015
      9007      9010      9013      9016      9008      9007      9010      9011
      9008      9007      9010      9012      9008      9007      9010      9013
      9009      9007      9010      9011      9009      9007      9010      9012
      9009      9007      9010      9013      9010      9013      9016      9017
      9010      9013      9016      9018      9010      9013      9016      9019
      9011      9010      9013      9014      9011      9010      9013      9015
      9011      9010      9013      9016      9012      9010      9013      9014
      9012      9010      9013      9015      9012      9010      9013      9016
      9013      9016      9019      9020      9013      9016      9019      9021
      9013      9016      9019      9022      9014      9013      9016      9017
      9014      9013      9016      9018      9014      9013      9016      9019
      9015      9013      9016      9017      9015      9013      9016      9018
      9015      9013      9016      9019      9016      9019      9022      9023
      9016      9019      9022      9024      9016      9019      9022      9025
      9017      9016      9019      9020      9017      9016      9019      9021
      9017      9016      9019      9022      9018      9016      9019      9020
      9018      9016      9019      9021      9018      9016      9019      9022
      9019      9022      9025      9026      9019      9022      9025      9027
      9019      9022      9025      9028      9020      9019      9022      9023
      9020      9019      9022      9024      9020      9019      9022      9025
      9021      9019      9022      9023      9021      9019      9022      9024
      9021      9019      9022      9025      9023      9022      9025      9026
      9023      9022      9025      9027      9023      9022      9025      9028
      9024      9022      9025      9026      9024      9022      9025      9027
      9024      9022      9025      9028      9029      9031      9034      9035
      9029      9031      9034      9036      9029      9031      9034      9037
      9030      9029      9031      9032      9030      9029      9031      9033
      9030      9029      9031      9034      9031      9034      9037      9038
      9031      9034      9037      9039      9031      9034      9037      9040
      9032      9031      9034      9035      9032      9031      9034      9036
      9032      9031      9034      9037      9033      9031      9034      9035
      9033      9031      9034      9036      9033      9031      9034      9037
      9034      9037      9040      9041      9034      9037      9040      9042
      9034      9037      9040      9043      9035      9034      9037      9038
      9035      9034      9037      9039      9035      9034      9037      9040
      9036      9034      9037      9038      9036      9034      9037      9039
      9036      9034      9037      9040      9037      9040      9043      9044
      9037      9040      9043      9045      9037      9040      9043      9046
      9038      9037      9040      9041      9038      9037      9040      9042
      9038      9037      9040      9043      9039      9037      9040      9041
      9039      9037      9040      9042      9039      9037      9040      9043
      9040      9043      9046      9047      9040      9043      9046      9048
      9040      9043      9046      9049      9041      9040      9043      9044
      9041      9040      9043      9045      9041      9040      9043      9046
      9042      9040      9043      9044      9042      9040      9043      9045
      9042      9040      9043      9046      9043      9046      9049      9050
      9043      9046      9049      9051      9043      9046      9049      9052
      9044      9043      9046      9047      9044      9043      9046      9048
      9044      9043      9046      9049      9045      9043      9046      9047
      9045      9043      9046      9048      9045      9043      9046      9049
      9046      9049      9052      9053      9046      9049      9052      9054
      9047      9046      9049      9050      9047      9046      9049      9051
      9047      9046      9049      9052      9048      9046      9049      9050
      9048      9046      9049      9051      9048      9046      9049      9052
      9049      9052      9054      9055      9049      9052      9054      9056
      9050      9049      9052      9053      9050      9049      9052      9054
      9051      9049      9052      9053      9051      9049      9052      9054
      9052      9054      9056      9057      9052      9054      9056      9058
      9052      9054      9056      9059      9053      9052      9054      9055
      9053      9052      9054      9056      9054      9056      9059      9060
      9054      9056      9059      9061      9054      9056      9059      9062
      9055      9054      9056      9057      9055      9054      9056      9058
      9055      9054      9056      9059      9056      9059      9062      9063
      9056      9059      9062      9064      9056      9059      9062      9065
      9057      9056      9059      9060      9057      9056      9059      9061
      9057      9056      9059      9062      9058      9056      9059      9060
      9058      9056      9059      9061      9058      9056      9059      9062
      9059      9062      9065      9066      9059      9062      9065      9067
      9059      9062      9065      9068      9060      9059      9062      9063
      9060      9059      9062      9064      9060      9059      9062      9065
      9061      9059      9062      9063      9061      9059      9062      9064
      9061      9059      9062      9065      9062      9065      9068      9069
      9062      9065      9068      9070      9062      9065      9068      9071
      9063      9062      9065      9066      9063      9062      9065      9067
      9063      9062      9065      9068      9064      9062      9065      9066
      9064      9062      9065      9067      9064      9062      9065      9068
      9065      9068      9071      9072      9065      9068      9071      9073
      9065      9068      9071      9074      9066      9065      9068      9069
      9066      9065      9068      9070      9066      9065      9068      9071
      9067      9065      9068      9069      9067      9065      9068      9070
      9067      9065      9068      9071      9068      9071      9074      9075
      9068      9071      9074      9076      9068      9071      9074      9077
      9069      9068      9071      9072      9069      9068      9071      9073
      9069      9068      9071      9074      9070      9068      9071      9072
      9070      9068      9071      9073      9070      9068      9071      9074
      9071      9074      9077      9078      9071      9074      9077      9079
      9071      9074      9077      9080      9072      9071      9074      9075
      9072      9071      9074      9076      9072      9071      9074      9077
      9073      9071      9074      9075      9073      9071      9074      9076
      9073      9071      9074      9077      9075      9074      9077      9078
      9075      9074      9077      9079      9075      9074      9077      9080
      9076      9074      9077      9078      9076      9074      9077      9079
      9076      9074      9077      9080      9081      9085      9088      9089
      9081      9085      9088      9090      9081      9085      9088      9094
      9082      9081      9085      9086      9082      9081      9085      9087
      9082      9081      9085      9088      9083      9081      9085      9086
      9083      9081      9085      9087      9083      9081      9085      9088
      9084      9081      9085      9086      9084      9081      9085      9087
      9084      9081      9085      9088      9085      9088      9094      9091
      9086      9085      9088      9089      9086      9085      9088      9090
      9086      9085      9088      9094      9087      9085      9088      9089
      9087      9085      9088      9090      9087      9085      9088      9094
      9088      9094      9091      9092      9088      9094      9091      9093
      9088      9094      9091      9095      9089      9088      9094      9091
      9090      9088      9094      9091      9091      9095      9096      9097
      9091      9095      9096      9098      9091      9095      9096      9099
      9092      9091      9095      9096      9093      9091      9095      9096
      9094      9091      9095      9096      9095      9096      9099      9100
      9095      9096      9099      9101      9095      9096      9099      9107
      9096      9099      9101      9102      9096      9099      9107      9108
      9096      9099      9107      9109      9096      9099      9107      9110
      9097      9096      9099      9100      9097      9096      9099      9101
      9097      9096      9099      9107      9098      9096      9099      9100
      9098      9096      9099      9101      9098      9096      9099      9107
      9099      9101      9102      9103      9099      9101      9102      9104
      9099      9107      9110      9111      9100      9099      9101      9102
      9100      9099      9107      9108      9100      9099      9107      9109
      9100      9099      9107      9110      9101      9099      9107      9108
      9101      9099      9107      9109      9101      9099      9107      9110
      9101      9102      9104      9105      9101      9102      9104      9106
      9101      9102      9104      9116      9102      9101      9099      9107
      9102      9104      9116      9117      9102      9104      9116      9118
      9102      9104      9116      9119      9103      9102      9104      9105
      9103      9102      9104      9106      9103      9102      9104      9116
      9104      9116      9119      9120      9104      9116      9119      9121
      9104      9116      9119      9122      9105      9104      9116      9117
      9105      9104      9116      9118      9105      9104      9116      9119
      9106      9104      9116      9117      9106      9104      9116      9118
      9106      9104      9116      9119      9107      9110      9111      9112
      9107      9110      9111      9113      9108      9107      9110      9111
      9109      9107      9110      9111      9110      9111      9113      9114
      9110      9111      9113      9115      9110      9111      9113      9163
      9111      9113      9163      9164      9111      9113      9163      9165
      9111      9113      9163      9166      9112      9111      9113      9114
      9112      9111      9113      9115      9112      9111      9113      9163
      9113      9163      9166      9167      9113      9163      9166      9168
      9113      9163      9166      9169      9114      9113      9163      9164
      9114      9113      9163      9165      9114      9113      9163      9166
      9115      9113      9163      9164      9115      9113      9163      9165
      9115      9113      9163      9166      9116      9119      9122      9123
      9116      9119      9122      9124      9117      9116      9119      9120
      9117      9116      9119      9121      9117      9116      9119      9122
      9118      9116      9119      9120      9118      9116      9119      9121
      9118      9116      9119      9122      9119      9122      9124      9125
      9119      9122      9124      9126      9120      9119      9122      9123
      9120      9119      9122      9124      9121      9119      9122      9123
      9121      9119      9122      9124      9122      9124      9126      9127
      9122      9124      9126      9128      9122      9124      9126      9129
      9123      9122      9124      9125      9123      9122      9124      9126
      9124      9126      9129      9130      9124      9126      9129      9131
      9125      9124      9126      9127      9125      9124      9126      9128
      9125      9124      9126      9129      9126      9129      9131      9132
      9126      9129      9131      9133      9127      9126      9129      9130
      9127      9126      9129      9131      9128      9126      9129      9130
      9128      9126      9129      9131      9129      9131      9133      9134
      9129      9131      9133      9135      9129      9131      9133      9136
      9130      9129      9131      9132      9130      9129      9131      9133
      9131      9133      9136      9137      9131      9133      9136      9138
      9132      9131      9133      9134      9132      9131      9133      9135
      9132      9131      9133      9136      9133      9136      9138      9139
      9133      9136      9138      9140      9134      9133      9136      9137
      9134      9133      9136      9138      9135      9133      9136      9137
      9135      9133      9136      9138      9136      9138      9140      9141
      9136      9138      9140      9142      9136      9138      9140      9143
      9137      9136      9138      9139      9137      9136      9138      9140
      9138      9140      9143      9144      9138      9140      9143      9145
      9139      9138      9140      9141      9139      9138      9140      9142
      9139      9138      9140      9143      9140      9143      9145      9146
      9140      9143      9145      9147      9141      9140      9143      9144
      9141      9140      9143      9145      9142      9140      9143      9144
      9142      9140      9143      9145      9143      9145      9147      9148
      9143      9145      9147      9149      9143      9145      9147      9150
      9144      9143      9145      9146      9144      9143      9145      9147
      9145      9147      9150      9151      9145      9147      9150      9152
      9145      9147      9150      9153      9146      9145      9147      9148
      9146      9145      9147      9149      9146      9145      9147      9150
      9147      9150      9153      9154      9147      9150      9153      9155
      9147      9150      9153      9156      9148      9147      9150      9151
      9148      9147      9150      9152      9148      9147      9150      9153
      9149      9147      9150      9151      9149      9147      9150      9152
      9149      9147      9150      9153      9150      9153      9156      9157
      9150      9153      9156      9158      9150      9153      9156      9159
      9151      9150      9153      9154      9151      9150      9153      9155
      9151      9150      9153      9156      9152      9150      9153      9154
      9152      9150      9153      9155      9152      9150      9153      9156
      9153      9156      9159      9160      9153      9156      9159      9161
      9153      9156      9159      9162      9154      9153      9156      9157
      9154      9153      9156      9158      9154      9153      9156      9159
      9155      9153      9156      9157      9155      9153      9156      9158
      9155      9153      9156      9159      9157      9156      9159      9160
      9157      9156      9159      9161      9157      9156      9159      9162
      9158      9156      9159      9160      9158      9156      9159      9161
      9158      9156      9159      9162      9163      9166      9169      9170
      9163      9166      9169      9171      9163      9166      9169      9172
      9164      9163      9166      9167      9164      9163      9166      9168
      9164      9163      9166      9169      9165      9163      9166      9167
      9165      9163      9166      9168      9165      9163      9166      9169
      9166      9169      9172      9173      9166      9169      9172      9174
      9166      9169      9172      9175      9167      9166      9169      9170
      9167      9166      9169      9171      9167      9166      9169      9172
      9168      9166      9169      9170      9168      9166      9169      9171
      9168      9166      9169      9172      9169      9172      9175      9176
      9169      9172      9175      9177      9169      9172      9175      9178
      9170      9169      9172      9173      9170      9169      9172      9174
      9170      9169      9172      9175      9171      9169      9172      9173
      9171      9169      9172      9174      9171      9169      9172      9175
      9172      9175      9178      9179      9172      9175      9178      9180
      9172      9175      9178      9181      9173      9172      9175      9176
      9173      9172      9175      9177      9173      9172      9175      9178
      9174      9172      9175      9176      9174      9172      9175      9177
      9174      9172      9175      9178      9175      9178      9181      9182
      9175      9178      9181      9183      9175      9178      9181      9184
      9176      9175      9178      9179      9176      9175      9178      9180
      9176      9175      9178      9181      9177      9175      9178      9179
      9177      9175      9178      9180      9177      9175      9178      9181
      9178      9181      9184      9185      9178      9181      9184      9186
      9178      9181      9184      9187      9179      9178      9181      9182
      9179      9178      9181      9183      9179      9178      9181      9184
      9180      9178      9181      9182      9180      9178      9181      9183
      9180      9178      9181      9184      9181      9184      9187      9188
      9181      9184      9187      9189      9181      9184      9187      9190
      9182      9181      9184      9185      9182      9181      9184      9186
      9182      9181      9184      9187      9183      9181      9184      9185
      9183      9181      9184      9186      9183      9181      9184      9187
      9184      9187      9190      9191      9184      9187      9190      9192
      9184      9187      9190      9193      9185      9184      9187      9188
      9185      9184      9187      9189      9185      9184      9187      9190
      9186      9184      9187      9188      9186      9184      9187      9189
      9186      9184      9187      9190      9187      9190      9193      9194
      9187      9190      9193      9195      9187      9190      9193      9196
      9188      9187      9190      9191      9188      9187      9190      9192
      9188      9187      9190      9193      9189      9187      9190      9191
      9189      9187      9190      9192      9189      9187      9190      9193
      9190      9193      9196      9197      9190      9193      9196      9198
      9190      9193      9196      9199      9191      9190      9193      9194
      9191      9190      9193      9195      9191      9190      9193      9196
      9192      9190      9193      9194      9192      9190      9193      9195
      9192      9190      9193      9196      9193      9196      9199      9200
      9193      9196      9199      9201      9193      9196      9199      9202
      9194      9193      9196      9197      9194      9193      9196      9198
      9194      9193      9196      9199      9195      9193      9196      9197
      9195      9193      9196      9198      9195      9193      9196      9199
      9196      9199      9202      9203      9196      9199      9202      9204
      9196      9199      9202      9205      9197      9196      9199      9200
      9197      9196      9199      9201      9197      9196      9199      9202
      9198      9196      9199      9200      9198      9196      9199      9201
      9198      9196      9199      9202      9199      9202      9205      9206
      9199      9202      9205      9207      9199      9202      9205      9208
      9200      9199      9202      9203      9200      9199      9202      9204
      9200      9199      9202      9205      9201      9199      9202      9203
      9201      9199      9202      9204      9201      9199      9202      9205
      9202      9205      9208      9209      9202      9205      9208      9210
      9202      9205      9208      9211      9203      9202      9205      9206
      9203      9202      9205      9207      9203      9202      9205      9208
      9204      9202      9205      9206      9204      9202      9205      9207
      9204      9202      9205      9208      9206      9205      9208      9209
      9206      9205      9208      9210      9206      9205      9208      9211
      9207      9205      9208      9209      9207      9205      9208      9210
      9207      9205      9208      9211      9212      9216      9219      9220
      9212      9216      9219      9250      9212      9258      9255      9250
      9212      9258      9255      9256      9212      9258      9255      9257
      9213      9212      9214      9215      9213      9212      9216      9217
      9213      9212      9216      9218      9213      9212      9216      9219
      9213      9212      9258      9255      9213      9212      9258      9259
      9213      9212      9258      9260      9214      9212      9216      9217
      9214      9212      9216      9218      9214      9212      9216      9219
      9214      9212      9258      9255      9214      9212      9258      9259
      9214      9212      9258      9260      9215      9214      9212      9216
      9215      9214      9212      9258      9216      9212      9258      9255
      9216      9212      9258      9259      9216      9212      9258      9260
      9216      9219      9220      9221      9216      9219      9220      9222
      9216      9219      9250      9248      9216      9219      9250      9251
      9216      9219      9250      9255      9217      9216      9212      9258
      9217      9216      9219      9220      9217      9216      9219      9250
      9218      9216      9212      9258      9218      9216      9219      9220
      9218      9216      9219      9250      9219      9216      9212      9258
      9219      9220      9222      9223      9219      9220      9222      9224
      9219      9220      9222      9225      9219      9250      9248      9225
      9219      9250      9248      9245      9219      9250      9248      9249
      9219      9250      9251      9252      9219      9250      9251      9253
      9219      9250      9251      9254      9219      9250      9255      9256
      9219      9250      9255      9257      9219      9250      9255      9258
      9220      9219      9250      9248      9220      9219      9250      9251
      9220      9219      9250      9255      9220      9222      9225      9226
      9220      9222      9225      9227      9220      9222      9225      9248
      9221      9220      9219      9250      9221      9220      9222      9223
      9221      9220      9222      9224      9221      9220      9222      9225
      9222      9220      9219      9250      9222      9225      9227      9228
      9222      9225      9227      9229      9222      9225      9227      9237
      9222      9225      9248      9245      9222      9225      9248      9249
      9222      9225      9248      9250      9223      9222      9225      9226
      9223      9222      9225      9227      9223      9222      9225      9248
      9224      9222      9225      9226      9224      9222      9225      9227
      9224      9222      9225      9248      9225      9227      9229      9230
      9225      9227      9229      9231      9225      9227      9229      9232
      9225      9227      9237      9235      9225      9227      9237      9238
      9225      9227      9237      9242      9225      9248      9245      9242
      9225      9248      9245      9246      9225      9248      9245      9247
      9225      9248      9250      9251      9225      9248      9250      9255
      9226      9225      9227      9228      9226      9225      9227      9229
      9226      9225      9227      9237      9226      9225      9248      9245
      9226      9225      9248      9249      9226      9225      9248      9250
      9227      9225      9248      9245      9227      9225      9248      9249
      9227      9225      9248      9250      9227      9229      9232      9233
      9227      9229      9232      9234      9227      9229      9232      9235
      9227      9237      9235      9232      9227      9237      9235      9236
      9227      9237      9235      9261      9227      9237      9238      9239
      9227      9237      9238      9240      9227      9237      9238      9241
      9227      9237      9242      9243      9227      9237      9242      9244
      9227      9237      9242      9245      9228      9227      9225      9248
      9228      9227      9229      9230      9228      9227      9229      9231
      9228      9227      9229      9232      9228      9227      9237      9235
      9228      9227      9237      9238      9228      9227      9237      9242
      9229      9227      9225      9248      9229      9227      9237      9235
      9229      9227      9237      9238      9229      9227      9237      9242
      9229      9232      9235      9236      9229      9232      9235      9237
      9229      9232      9235      9261      9230      9229      9227      9237
      9230      9229      9232      9233      9230      9229      9232      9234
      9230      9229      9232      9235      9231      9229      9227      9237
      9231      9229      9232      9233      9231      9229      9232      9234
      9231      9229      9232      9235      9232      9229      9227      9237
      9232      9235      9237      9238      9232      9235      9237      9242
      9232      9235      9261      9262      9232      9235      9261      9263
      9232      9235      9261      9267      9233      9232      9235      9236
      9233      9232      9235      9237      9233      9232      9235      9261
      9234      9232      9235      9236      9234      9232      9235      9237
      9234      9232      9235      9261      9235      9237      9238      9239
      9235      9237      9238      9240      9235      9237      9238      9241
      9235      9237      9242      9243      9235      9237      9242      9244
      9235      9237      9242      9245      9235      9261      9263      9264
      9235      9261      9263      9265      9235      9261      9263      9266
      9235      9261      9267      9268      9235      9261      9267      9269
      9235      9261      9267      9270      9236      9235      9237      9238
      9236      9235      9237      9242      9236      9235      9261      9262
      9236      9235      9261      9263      9236      9235      9261      9267
      9237      9227      9225      9248      9237      9235      9261      9262
      9237      9235      9261      9263      9237      9235      9261      9267
      9237      9242      9245      9246      9237      9242      9245      9247
      9237      9242      9245      9248      9238      9237      9235      9261
      9238      9237      9242      9243      9238      9237      9242      9244
      9238      9237      9242      9245      9239      9238      9237      9242
      9240      9238      9237      9242      9241      9238      9237      9242
      9242      9237      9235      9261      9242      9245      9248      9249
      9242      9245      9248      9250      9243      9242      9245      9246
      9243      9242      9245      9247      9243      9242      9245      9248
      9244      9242      9245      9246      9244      9242      9245      9247
      9244      9242      9245      9248      9245      9248      9250      9251
      9245      9248      9250      9255      9246      9245      9248      9249
      9246      9245      9248      9250      9247      9245      9248      9249
      9247      9245      9248      9250      9248      9250      9251      9252
      9248      9250      9251      9253      9248      9250      9251      9254
      9248      9250      9255      9256      9248      9250      9255      9257
      9248      9250      9255      9258      9249      9248      9250      9251
      9249      9248      9250      9255      9250      9255      9258      9259
      9250      9255      9258      9260      9251      9250      9255      9256
      9251      9250      9255      9257      9251      9250      9255      9258
      9252      9251      9250      9255      9253      9251      9250      9255
      9254      9251      9250      9255      9256      9255      9258      9259
      9256      9255      9258      9260      9257      9255      9258      9259
      9257      9255      9258      9260      9261      9267      9270      9271
      9261      9267      9270      9272      9261      9267      9270      9273
      9262      9261      9263      9264      9262      9261      9263      9265
      9262      9261      9263      9266      9262      9261      9267      9268
      9262      9261      9267      9269      9262      9261      9267      9270
      9263      9261      9267      9268      9263      9261      9267      9269
      9263      9261      9267      9270      9264      9263      9261      9267
      9265      9263      9261      9267      9266      9263      9261      9267
      9267      9270      9273      9274      9267      9270      9273      9275
      9267      9270      9273      9276      9268      9267      9270      9271
      9268      9267      9270      9272      9268      9267      9270      9273
      9269      9267      9270      9271      9269      9267      9270      9272
      9269      9267      9270      9273      9270      9273      9276      9277
      9270      9273      9276      9278      9270      9273      9276      9282
      9271      9270      9273      9274      9271      9270      9273      9275
      9271      9270      9273      9276      9272      9270      9273      9274
      9272      9270      9273      9275      9272      9270      9273      9276
      9273      9276      9278      9279      9273      9276      9278      9280
      9273      9276      9278      9281      9273      9276      9282      9283
      9273      9276      9282      9284      9273      9276      9282      9285
      9274      9273      9276      9277      9274      9273      9276      9278
      9274      9273      9276      9282      9275      9273      9276      9277
      9275      9273      9276      9278      9275      9273      9276      9282
      9277      9276      9278      9279      9277      9276      9278      9280
      9277      9276      9278      9281      9277      9276      9282      9283
      9277      9276      9282      9284      9277      9276      9282      9285
      9278      9276      9282      9283      9278      9276      9282      9284
      9278      9276      9282      9285      9279      9278      9276      9282
      9280      9278      9276      9282      9281      9278      9276      9282
      9286      9290      9293      9294      9286      9290      9293      9295
      9286      9290      9293      9299      9287      9286      9290      9291
      9287      9286      9290      9292      9287      9286      9290      9293
      9288      9286      9290      9291      9288      9286      9290      9292
      9288      9286      9290      9293      9289      9286      9290      9291
      9289      9286      9290      9292      9289      9286      9290      9293
      9290      9293      9299      9296      9291      9290      9293      9294
      9291      9290      9293      9295      9291      9290      9293      9299
      9292      9290      9293      9294      9292      9290      9293      9295
      9292      9290      9293      9299      9293      9299      9296      9297
      9293      9299      9296      9298      9293      9299      9296      9300
      9294      9293      9299      9296      9295      9293      9299      9296
      9296      9300      9301      9302      9296      9300      9301      9303
      9296      9300      9301      9304      9297      9296      9300      9301
      9298      9296      9300      9301      9299      9296      9300      9301
      9300      9301      9304      9305      9300      9301      9304      9306
      9300      9301      9304      9312      9301      9304      9306      9307
      9301      9304      9312      9313      9301      9304      9312      9314
      9301      9304      9312      9315      9302      9301      9304      9305
      9302      9301      9304      9306      9302      9301      9304      9312
      9303      9301      9304      9305      9303      9301      9304      9306
      9303      9301      9304      9312      9304      9306      9307      9308
      9304      9306      9307      9309      9304      9312      9315      9316
      9305      9304      9306      9307      9305      9304      9312      9313
      9305      9304      9312      9314      9305      9304      9312      9315
      9306      9304      9312      9313      9306      9304      9312      9314
      9306      9304      9312      9315      9306      9307      9309      9310
      9306      9307      9309      9311      9306      9307      9309      9321
      9307      9306      9304      9312      9307      9309      9321      9322
      9307      9309      9321      9323      9307      9309      9321      9324
      9308      9307      9309      9310      9308      9307      9309      9311
      9308      9307      9309      9321      9309      9321      9324      9325
      9309      9321      9324      9326      9309      9321      9324      9327
      9310      9309      9321      9322      9310      9309      9321      9323
      9310      9309      9321      9324      9311      9309      9321      9322
      9311      9309      9321      9323      9311      9309      9321      9324
      9312      9315      9316      9317      9312      9315      9316      9318
      9313      9312      9315      9316      9314      9312      9315      9316
      9315      9316      9318      9319      9315      9316      9318      9320
      9315      9316      9318      9368      9316      9318      9368      9369
      9316      9318      9368      9370      9316      9318      9368      9371
      9317      9316      9318      9319      9317      9316      9318      9320
      9317      9316      9318      9368      9318      9368      9371      9372
      9318      9368      9371      9373      9318      9368      9371      9374
      9319      9318      9368      9369      9319      9318      9368      9370
      9319      9318      9368      9371      9320      9318      9368      9369
      9320      9318      9368      9370      9320      9318      9368      9371
      9321      9324      9327      9328      9321      9324      9327      9329
      9322      9321      9324      9325      9322      9321      9324      9326
      9322      9321      9324      9327      9323      9321      9324      9325
      9323      9321      9324      9326      9323      9321      9324      9327
      9324      9327      9329      9330      9324      9327      9329      9331
      9325      9324      9327      9328      9325      9324      9327      9329
      9326      9324      9327      9328      9326      9324      9327      9329
      9327      9329      9331      9332      9327      9329      9331      9333
      9327      9329      9331      9334      9328      9327      9329      9330
      9328      9327      9329      9331      9329      9331      9334      9335
      9329      9331      9334      9336      9330      9329      9331      9332
      9330      9329      9331      9333      9330      9329      9331      9334
      9331      9334      9336      9337      9331      9334      9336      9338
      9332      9331      9334      9335      9332      9331      9334      9336
      9333      9331      9334      9335      9333      9331      9334      9336
      9334      9336      9338      9339      9334      9336      9338      9340
      9334      9336      9338      9341      9335      9334      9336      9337
      9335      9334      9336      9338      9336      9338      9341      9342
      9336      9338      9341      9343      9337      9336      9338      9339
      9337      9336      9338      9340      9337      9336      9338      9341
      9338      9341      9343      9344      9338      9341      9343      9345
      9339      9338      9341      9342      9339      9338      9341      9343
      9340      9338      9341      9342      9340      9338      9341      9343
      9341      9343      9345      9346      9341      9343      9345      9347
      9341      9343      9345      9348      9342      9341      9343      9344
      9342      9341      9343      9345      9343      9345      9348      9349
      9343      9345      9348      9350      9344      9343      9345      9346
      9344      9343      9345      9347      9344      9343      9345      9348
      9345      9348      9350      9351      9345      9348      9350      9352
      9346      9345      9348      9349      9346      9345      9348      9350
      9347      9345      9348      9349      9347      9345      9348      9350
      9348      9350      9352      9353      9348      9350      9352      9354
      9348      9350      9352      9355      9349      9348      9350      9351
      9349      9348      9350      9352      9350      9352      9355      9356
      9350      9352      9355      9357      9350      9352      9355      9358
      9351      9350      9352      9353      9351      9350      9352      9354
      9351      9350      9352      9355      9352      9355      9358      9359
      9352      9355      9358      9360      9352      9355      9358      9361
      9353      9352      9355      9356      9353      9352      9355      9357
      9353      9352      9355      9358      9354      9352      9355      9356
      9354      9352      9355      9357      9354      9352      9355      9358
      9355      9358      9361      9362      9355      9358      9361      9363
      9355      9358      9361      9364      9356      9355      9358      9359
      9356      9355      9358      9360      9356      9355      9358      9361
      9357      9355      9358      9359      9357      9355      9358      9360
      9357      9355      9358      9361      9358      9361      9364      9365
      9358      9361      9364      9366      9358      9361      9364      9367
      9359      9358      9361      9362      9359      9358      9361      9363
      9359      9358      9361      9364      9360      9358      9361      9362
      9360      9358      9361      9363      9360      9358      9361      9364
      9362      9361      9364      9365      9362      9361      9364      9366
      9362      9361      9364      9367      9363      9361      9364      9365
      9363      9361      9364      9366      9363      9361      9364      9367
      9368      9371      9374      9375      9368      9371      9374      9376
      9368      9371      9374      9377      9369      9368      9371      9372
      9369      9368      9371      9373      9369      9368      9371      9374
      9370      9368      9371      9372      9370      9368      9371      9373
      9370      9368      9371      9374      9371      9374      9377      9378
      9371      9374      9377      9379      9371      9374      9377      9380
      9372      9371      9374      9375      9372      9371      9374      9376
      9372      9371      9374      9377      9373      9371      9374      9375
      9373      9371      9374      9376      9373      9371      9374      9377
      9374      9377      9380      9381      9374      9377      9380      9382
      9374      9377      9380      9383      9375      9374      9377      9378
      9375      9374      9377      9379      9375      9374      9377      9380
      9376      9374      9377      9378      9376      9374      9377      9379
      9376      9374      9377      9380      9377      9380      9383      9384
      9377      9380      9383      9385      9377      9380      9383      9386
      9378      9377      9380      9381      9378      9377      9380      9382
      9378      9377      9380      9383      9379      9377      9380      9381
      9379      9377      9380      9382      9379      9377      9380      9383
      9380      9383      9386      9387      9380      9383      9386      9388
      9380      9383      9386      9389      9381      9380      9383      9384
      9381      9380      9383      9385      9381      9380      9383      9386
      9382      9380      9383      9384      9382      9380      9383      9385
      9382      9380      9383      9386      9383      9386      9389      9390
      9383      9386      9389      9391      9383      9386      9389      9392
      9384      9383      9386      9387      9384      9383      9386      9388
      9384      9383      9386      9389      9385      9383      9386      9387
      9385      9383      9386      9388      9385      9383      9386      9389
      9386      9389      9392      9393      9386      9389      9392      9394
      9386      9389      9392      9395      9387      9386      9389      9390
      9387      9386      9389      9391      9387      9386      9389      9392
      9388      9386      9389      9390      9388      9386      9389      9391
      9388      9386      9389      9392      9389      9392      9395      9396
      9389      9392      9395      9397      9389      9392      9395      9398
      9390      9389      9392      9393      9390      9389      9392      9394
      9390      9389      9392      9395      9391      9389      9392      9393
      9391      9389      9392      9394      9391      9389      9392      9395
      9392      9395      9398      9399      9392      9395      9398      9400
      9392      9395      9398      9401      9393      9392      9395      9396
      9393      9392      9395      9397      9393      9392      9395      9398
      9394      9392      9395      9396      9394      9392      9395      9397
      9394      9392      9395      9398      9395      9398      9401      9402
      9395      9398      9401      9403      9395      9398      9401      9404
      9396      9395      9398      9399      9396      9395      9398      9400
      9396      9395      9398      9401      9397      9395      9398      9399
      9397      9395      9398      9400      9397      9395      9398      9401
      9398      9401      9404      9405      9398      9401      9404      9406
      9398      9401      9404      9407      9399      9398      9401      9402
      9399      9398      9401      9403      9399      9398      9401      9404
      9400      9398      9401      9402      9400      9398      9401      9403
      9400      9398      9401      9404      9401      9404      9407      9408
      9401      9404      9407      9409      9401      9404      9407      9410
      9402      9401      9404      9405      9402      9401      9404      9406
      9402      9401      9404      9407      9403      9401      9404      9405
      9403      9401      9404      9406      9403      9401      9404      9407
      9404      9407      9410      9411      9404      9407      9410      9412
      9404      9407      9410      9413      9405      9404      9407      9408
      9405      9404      9407      9409      9405      9404      9407      9410
      9406      9404      9407      9408      9406      9404      9407      9409
      9406      9404      9407      9410      9407      9410      9413      9414
      9407      9410      9413      9415      9407      9410      9413      9416
      9408      9407      9410      9411      9408      9407      9410      9412
      9408      9407      9410      9413      9409      9407      9410      9411
      9409      9407      9410      9412      9409      9407      9410      9413
      9411      9410      9413      9414      9411      9410      9413      9415
      9411      9410      9413      9416      9412      9410      9413      9414
      9412      9410      9413      9415      9412      9410      9413      9416
      9417      9430      9433      9434      9417      9430      9433      9435
      9417      9430      9433      9439      9418      9417      9422      9423
      9418      9417      9422      9424      9418      9417      9422      9425
      9418      9417      9426      9427      9418      9417      9426      9428
      9418      9417      9426      9429      9418      9417      9430      9431
      9418      9417      9430      9432      9418      9417      9430      9433
      9419      9418      9417      9422      9419      9418      9417      9426
      9419      9418      9417      9430      9420      9418      9417      9422
      9420      9418      9417      9426      9420      9418      9417      9430
      9421      9418      9417      9422      9421      9418      9417      9426
      9421      9418      9417      9430      9422      9417      9426      9427
      9422      9417      9426      9428      9422      9417      9426      9429
      9422      9417      9430      9431      9422      9417      9430      9432
      9422      9417      9430      9433      9423      9422      9417      9426
      9423      9422      9417      9430      9424      9422      9417      9426
      9424      9422      9417      9430      9425      9422      9417      9426
      9425      9422      9417      9430      9426      9417      9430      9431
      9426      9417      9430      9432      9426      9417      9430      9433
      9427      9426      9417      9430      9428      9426      9417      9430
      9429      9426      9417      9430      9430      9433      9439      9436
      9431      9430      9433      9434      9431      9430      9433      9435
      9431      9430      9433      9439      9432      9430      9433      9434
      9432      9430      9433      9435      9432      9430      9433      9439
      9433      9439      9436      9437      9433      9439      9436      9438
      9433      9439      9436      9440      9434      9433      9439      9436
      9435      9433      9439      9436      9436      9440      9441      9442
      9436      9440      9441      9443      9436      9440      9441      9444
      9437      9436      9440      9441      9438      9436      9440      9441
      9439      9436      9440      9441      9440      9441      9444      9445
      9440      9441      9444      9446      9440      9441      9444      9452
      9441      9444      9446      9447      9441      9444      9452      9453
      9441      9444      9452      9454      9441      9444      9452      9455
      9442      9441      9444      9445      9442      9441      9444      9446
      9442      9441      9444      9452      9443      9441      9444      9445
      9443      9441      9444      9446      9443      9441      9444      9452
      9444      9446      9447      9448      9444      9446      9447      9449
      9444      9452      9455      9456      9445      9444      9446      9447
      9445      9444      9452      9453      9445      9444      9452      9454
      9445      9444      9452      9455      9446      9444      9452      9453
      9446      9444      9452      9454      9446      9444      9452      9455
      9446      9447      9449      9450      9446      9447      9449      9451
      9446      9447      9449      9461      9447      9446      9444      9452
      9447      9449      9461      9462      9447      9449      9461      9463
      9447      9449      9461      9464      9448      9447      9449      9450
      9448      9447      9449      9451      9448      9447      9449      9461
      9449      9461      9464      9465      9449      9461      9464      9466
      9449      9461      9464      9467      9450      9449      9461      9462
      9450      9449      9461      9463      9450      9449      9461      9464
      9451      9449      9461      9462      9451      9449      9461      9463
      9451      9449      9461      9464      9452      9455      9456      9457
      9452      9455      9456      9458      9453      9452      9455      9456
      9454      9452      9455      9456      9455      9456      9458      9459
      9455      9456      9458      9460      9455      9456      9458      9506
      9456      9458      9506      9507      9456      9458      9506      9508
      9456      9458      9506      9509      9457      9456      9458      9459
      9457      9456      9458      9460      9457      9456      9458      9506
      9458      9506      9509      9510      9458      9506      9509      9511
      9458      9506      9509      9512      9459      9458      9506      9507
      9459      9458      9506      9508      9459      9458      9506      9509
      9460      9458      9506      9507      9460      9458      9506      9508
      9460      9458      9506      9509      9461      9464      9467      9468
      9461      9464      9467      9469      9461      9464      9467      9470
      9462      9461      9464      9465      9462      9461      9464      9466
      9462      9461      9464      9467      9463      9461      9464      9465
      9463      9461      9464      9466      9463      9461      9464      9467
      9464      9467      9470      9471      9464      9467      9470      9472
      9464      9467      9470      9473      9465      9464      9467      9468
      9465      9464      9467      9469      9465      9464      9467      9470
      9466      9464      9467      9468      9466      9464      9467      9469
      9466      9464      9467      9470      9467      9470      9473      9474
      9467      9470      9473      9475      9467      9470      9473      9476
      9468      9467      9470      9471      9468      9467      9470      9472
      9468      9467      9470      9473      9469      9467      9470      9471
      9469      9467      9470      9472      9469      9467      9470      9473
      9470      9473      9476      9477      9470      9473      9476      9478
      9470      9473      9476      9479      9471      9470      9473      9474
      9471      9470      9473      9475      9471      9470      9473      9476
      9472      9470      9473      9474      9472      9470      9473      9475
      9472      9470      9473      9476      9473      9476      9479      9480
      9473      9476      9479      9481      9474      9473      9476      9477
      9474      9473      9476      9478      9474      9473      9476      9479
      9475      9473      9476      9477      9475      9473      9476      9478
      9475      9473      9476      9479      9476      9479      9481      9482
      9476      9479      9481      9483      9477      9476      9479      9480
      9477      9476      9479      9481      9478      9476      9479      9480
      9478      9476      9479      9481      9479      9481      9483      9484
      9479      9481      9483      9485      9479      9481      9483      9486
      9480      9479      9481      9482      9480      9479      9481      9483
      9481      9483      9486      9487      9481      9483      9486      9488
      9482      9481      9483      9484      9482      9481      9483      9485
      9482      9481      9483      9486      9483      9486      9488      9489
      9483      9486      9488      9490      9484      9483      9486      9487
      9484      9483      9486      9488      9485      9483      9486      9487
      9485      9483      9486      9488      9486      9488      9490      9491
      9486      9488      9490      9492      9486      9488      9490      9493
      9487      9486      9488      9489      9487      9486      9488      9490
      9488      9490      9493      9494      9488      9490      9493      9495
      9488      9490      9493      9496      9489      9488      9490      9491
      9489      9488      9490      9492      9489      9488      9490      9493
      9490      9493      9496      9497      9490      9493      9496      9498
      9490      9493      9496      9499      9491      9490      9493      9494
      9491      9490      9493      9495      9491      9490      9493      9496
      9492      9490      9493      9494      9492      9490      9493      9495
      9492      9490      9493      9496      9493      9496      9499      9500
      9493      9496      9499      9501      9493      9496      9499      9502
      9494      9493      9496      9497      9494      9493      9496      9498
      9494      9493      9496      9499      9495      9493      9496      9497
      9495      9493      9496      9498      9495      9493      9496      9499
      9496      9499      9502      9503      9496      9499      9502      9504
      9496      9499      9502      9505      9497      9496      9499      9500
      9497      9496      9499      9501      9497      9496      9499      9502
      9498      9496      9499      9500      9498      9496      9499      9501
      9498      9496      9499      9502      9500      9499      9502      9503
      9500      9499      9502      9504      9500      9499      9502      9505
      9501      9499      9502      9503      9501      9499      9502      9504
      9501      9499      9502      9505      9506      9509      9512      9513
      9506      9509      9512      9514      9506      9509      9512      9515
      9507      9506      9509      9510      9507      9506      9509      9511
      9507      9506      9509      9512      9508      9506      9509      9510
      9508      9506      9509      9511      9508      9506      9509      9512
      9509      9512      9515      9516      9509      9512      9515      9517
      9509      9512      9515      9518      9510      9509      9512      9513
      9510      9509      9512      9514      9510      9509      9512      9515
      9511      9509      9512      9513      9511      9509      9512      9514
      9511      9509      9512      9515      9512      9515      9518      9519
      9512      9515      9518      9520      9512      9515      9518      9521
      9513      9512      9515      9516      9513      9512      9515      9517
      9513      9512      9515      9518      9514      9512      9515      9516
      9514      9512      9515      9517      9514      9512      9515      9518
      9515      9518      9521      9522      9515      9518      9521      9523
      9515      9518      9521      9524      9516      9515      9518      9519
      9516      9515      9518      9520      9516      9515      9518      9521
      9517      9515      9518      9519      9517      9515      9518      9520
      9517      9515      9518      9521      9518      9521      9524      9525
      9518      9521      9524      9526      9518      9521      9524      9527
      9519      9518      9521      9522      9519      9518      9521      9523
      9519      9518      9521      9524      9520      9518      9521      9522
      9520      9518      9521      9523      9520      9518      9521      9524
      9521      9524      9527      9528      9521      9524      9527      9529
      9521      9524      9527      9530      9522      9521      9524      9525
      9522      9521      9524      9526      9522      9521      9524      9527
      9523      9521      9524      9525      9523      9521      9524      9526
      9523      9521      9524      9527      9524      9527      9530      9531
      9524      9527      9530      9532      9524      9527      9530      9533
      9525      9524      9527      9528      9525      9524      9527      9529
      9525      9524      9527      9530      9526      9524      9527      9528
      9526      9524      9527      9529      9526      9524      9527      9530
      9527      9530      9533      9534      9527      9530      9533      9535
      9527      9530      9533      9536      9528      9527      9530      9531
      9528      9527      9530      9532      9528      9527      9530      9533
      9529      9527      9530      9531      9529      9527      9530      9532
      9529      9527      9530      9533      9530      9533      9536      9537
      9530      9533      9536      9538      9530      9533      9536      9539
      9531      9530      9533      9534      9531      9530      9533      9535
      9531      9530      9533      9536      9532      9530      9533      9534
      9532      9530      9533      9535      9532      9530      9533      9536
      9533      9536      9539      9540      9533      9536      9539      9541
      9533      9536      9539      9542      9534      9533      9536      9537
      9534      9533      9536      9538      9534      9533      9536      9539
      9535      9533      9536      9537      9535      9533      9536      9538
      9535      9533      9536      9539      9536      9539      9542      9543
      9536      9539      9542      9544      9536      9539      9542      9545
      9537      9536      9539      9540      9537      9536      9539      9541
      9537      9536      9539      9542      9538      9536      9539      9540
      9538      9536      9539      9541      9538      9536      9539      9542
      9539      9542      9545      9546      9539      9542      9545      9547
      9539      9542      9545      9548      9540      9539      9542      9543
      9540      9539      9542      9544      9540      9539      9542      9545
      9541      9539      9542      9543      9541      9539      9542      9544
      9541      9539      9542      9545      9542      9545      9548      9549
      9542      9545      9548      9550      9542      9545      9548      9551
      9543      9542      9545      9546      9543      9542      9545      9547
      9543      9542      9545      9548      9544      9542      9545      9546
      9544      9542      9545      9547      9544      9542      9545      9548
      9545      9548      9551      9552      9545      9548      9551      9553
      9545      9548      9551      9554      9546      9545      9548      9549
      9546      9545      9548      9550      9546      9545      9548      9551
      9547      9545      9548      9549      9547      9545      9548      9550
      9547      9545      9548      9551      9549      9548      9551      9552
      9549      9548      9551      9553      9549      9548      9551      9554
      9550      9548      9551      9552      9550      9548      9551      9553
      9550      9548      9551      9554      9555      9556      9571      9572
      9555      9556      9571      9573      9555      9556      9571      9577
      9556      9555      9559      9560      9556      9555      9559      9561
      9556      9555      9559      9562      9556      9555      9563      9564
      9556      9555      9563      9565      9556      9555      9563      9566
      9556      9555      9567      9568      9556      9555      9567      9569
      9556      9555      9567      9570      9556      9571      9577      9574
      9557      9556      9555      9559      9557      9556      9555      9563
      9557      9556      9555      9567      9557      9556      9571      9572
      9557      9556      9571      9573      9557      9556      9571      9577
      9558      9556      9555      9559      9558      9556      9555      9563
      9558      9556      9555      9567      9558      9556      9571      9572
      9558      9556      9571      9573      9558      9556      9571      9577
      9559      9555      9556      9571      9559      9555      9563      9564
      9559      9555      9563      9565      9559      9555      9563      9566
      9559      9555      9567      9568      9559      9555      9567      9569
      9559      9555      9567      9570      9560      9559      9555      9563
      9560      9559      9555      9567      9561      9559      9555      9563
      9561      9559      9555      9567      9562      9559      9555      9563
      9562      9559      9555      9567      9563      9555      9556      9571
      9563      9555      9567      9568      9563      9555      9567      9569
      9563      9555      9567      9570      9564      9563      9555      9567
      9565      9563      9555      9567      9566      9563      9555      9567
      9567      9555      9556      9571      9571      9577      9574      9575
      9571      9577      9574      9576      9571      9577      9574      9578
      9572      9571      9577      9574      9573      9571      9577      9574
      9574      9578      9579      9580      9574      9578      9579      9581
      9574      9578      9579      9582      9575      9574      9578      9579
      9576      9574      9578      9579      9577      9574      9578      9579
      9578      9579      9582      9583      9578      9579      9582      9584
      9578      9579      9582      9590      9579      9582      9584      9585
      9579      9582      9590      9591      9579      9582      9590      9592
      9579      9582      9590      9593      9580      9579      9582      9583
      9580      9579      9582      9584      9580      9579      9582      9590
      9581      9579      9582      9583      9581      9579      9582      9584
      9581      9579      9582      9590      9582      9584      9585      9586
      9582      9584      9585      9587      9582      9590      9593      9594
      9583      9582      9584      9585      9583      9582      9590      9591
      9583      9582      9590      9592      9583      9582      9590      9593
      9584      9582      9590      9591      9584      9582      9590      9592
      9584      9582      9590      9593      9584      9585      9587      9588
      9584      9585      9587      9589      9584      9585      9587      9599
      9585      9584      9582      9590      9585      9587      9599      9600
      9585      9587      9599      9601      9585      9587      9599      9602
      9586      9585      9587      9588      9586      9585      9587      9589
      9586      9585      9587      9599      9587      9599      9602      9603
      9587      9599      9602      9604      9587      9599      9602      9605
      9588      9587      9599      9600      9588      9587      9599      9601
      9588      9587      9599      9602      9589      9587      9599      9600
      9589      9587      9599      9601      9589      9587      9599      9602
      9590      9593      9594      9595      9590      9593      9594      9596
      9591      9590      9593      9594      9592      9590      9593      9594
      9593      9594      9596      9597      9593      9594      9596      9598
      9593      9594      9596      9646      9594      9596      9646      9647
      9594      9596      9646      9648      9594      9596      9646      9649
      9595      9594      9596      9597      9595      9594      9596      9598
      9595      9594      9596      9646      9596      9646      9649      9650
      9596      9646      9649      9651      9596      9646      9649      9652
      9597      9596      9646      9647      9597      9596      9646      9648
      9597      9596      9646      9649      9598      9596      9646      9647
      9598      9596      9646      9648      9598      9596      9646      9649
      9599      9602      9605      9606      9599      9602      9605      9607
      9600      9599      9602      9603      9600      9599      9602      9604
      9600      9599      9602      9605      9601      9599      9602      9603
      9601      9599      9602      9604      9601      9599      9602      9605
      9602      9605      9607      9608      9602      9605      9607      9609
      9603      9602      9605      9606      9603      9602      9605      9607
      9604      9602      9605      9606      9604      9602      9605      9607
      9605      9607      9609      9610      9605      9607      9609      9611
      9605      9607      9609      9612      9606      9605      9607      9608
      9606      9605      9607      9609      9607      9609      9612      9613
      9607      9609      9612      9614      9608      9607      9609      9610
      9608      9607      9609      9611      9608      9607      9609      9612
      9609      9612      9614      9615      9609      9612      9614      9616
      9610      9609      9612      9613      9610      9609      9612      9614
      9611      9609      9612      9613      9611      9609      9612      9614
      9612      9614      9616      9617      9612      9614      9616      9618
      9612      9614      9616      9619      9613      9612      9614      9615
      9613      9612      9614      9616      9614      9616      9619      9620
      9614      9616      9619      9621      9615      9614      9616      9617
      9615      9614      9616      9618      9615      9614      9616      9619
      9616      9619      9621      9622      9616      9619      9621      9623
      9617      9616      9619      9620      9617      9616      9619      9621
      9618      9616      9619      9620      9618      9616      9619      9621
      9619      9621      9623      9624      9619      9621      9623      9625
      9619      9621      9623      9626      9620      9619      9621      9622
      9620      9619      9621      9623      9621      9623      9626      9627
      9621      9623      9626      9628      9622      9621      9623      9624
      9622      9621      9623      9625      9622      9621      9623      9626
      9623      9626      9628      9629      9623      9626      9628      9630
      9624      9623      9626      9627      9624      9623      9626      9628
      9625      9623      9626      9627      9625      9623      9626      9628
      9626      9628      9630      9631      9626      9628      9630      9632
      9626      9628      9630      9633      9627      9626      9628      9629
      9627      9626      9628      9630      9628      9630      9633      9634
      9628      9630      9633      9635      9628      9630      9633      9636
      9629      9628      9630      9631      9629      9628      9630      9632
      9629      9628      9630      9633      9630      9633      9636      9637
      9630      9633      9636      9638      9630      9633      9636      9639
      9631      9630      9633      9634      9631      9630      9633      9635
      9631      9630      9633      9636      9632      9630      9633      9634
      9632      9630      9633      9635      9632      9630      9633      9636
      9633      9636      9639      9640      9633      9636      9639      9641
      9633      9636      9639      9642      9634      9633      9636      9637
      9634      9633      9636      9638      9634      9633      9636      9639
      9635      9633      9636      9637      9635      9633      9636      9638
      9635      9633      9636      9639      9636      9639      9642      9643
      9636      9639      9642      9644      9636      9639      9642      9645
      9637      9636      9639      9640      9637      9636      9639      9641
      9637      9636      9639      9642      9638      9636      9639      9640
      9638      9636      9639      9641      9638      9636      9639      9642
      9640      9639      9642      9643      9640      9639      9642      9644
      9640      9639      9642      9645      9641      9639      9642      9643
      9641      9639      9642      9644      9641      9639      9642      9645
      9646      9649      9652      9653      9646      9649      9652      9654
      9646      9649      9652      9655      9647      9646      9649      9650
      9647      9646      9649      9651      9647      9646      9649      9652
      9648      9646      9649      9650      9648      9646      9649      9651
      9648      9646      9649      9652      9649      9652      9655      9656
      9649      9652      9655      9657      9649      9652      9655      9658
      9650      9649      9652      9653      9650      9649      9652      9654
      9650      9649      9652      9655      9651      9649      9652      9653
      9651      9649      9652      9654      9651      9649      9652      9655
      9652      9655      9658      9659      9652      9655      9658      9660
      9652      9655      9658      9661      9653      9652      9655      9656
      9653      9652      9655      9657      9653      9652      9655      9658
      9654      9652      9655      9656      9654      9652      9655      9657
      9654      9652      9655      9658      9655      9658      9661      9662
      9655      9658      9661      9663      9655      9658      9661      9664
      9656      9655      9658      9659      9656      9655      9658      9660
      9656      9655      9658      9661      9657      9655      9658      9659
      9657      9655      9658      9660      9657      9655      9658      9661
      9658      9661      9664      9665      9658      9661      9664      9666
      9658      9661      9664      9667      9659      9658      9661      9662
      9659      9658      9661      9663      9659      9658      9661      9664
      9660      9658      9661      9662      9660      9658      9661      9663
      9660      9658      9661      9664      9661      9664      9667      9668
      9661      9664      9667      9669      9661      9664      9667      9670
      9662      9661      9664      9665      9662      9661      9664      9666
      9662      9661      9664      9667      9663      9661      9664      9665
      9663      9661      9664      9666      9663      9661      9664      9667
      9664      9667      9670      9671      9664      9667      9670      9672
      9664      9667      9670      9673      9665      9664      9667      9668
      9665      9664      9667      9669      9665      9664      9667      9670
      9666      9664      9667      9668      9666      9664      9667      9669
      9666      9664      9667      9670      9667      9670      9673      9674
      9667      9670      9673      9675      9667      9670      9673      9676
      9668      9667      9670      9671      9668      9667      9670      9672
      9668      9667      9670      9673      9669      9667      9670      9671
      9669      9667      9670      9672      9669      9667      9670      9673
      9670      9673      9676      9677      9670      9673      9676      9678
      9670      9673      9676      9679      9671      9670      9673      9674
      9671      9670      9673      9675      9671      9670      9673      9676
      9672      9670      9673      9674      9672      9670      9673      9675
      9672      9670      9673      9676      9673      9676      9679      9680
      9673      9676      9679      9681      9673      9676      9679      9682
      9674      9673      9676      9677      9674      9673      9676      9678
      9674      9673      9676      9679      9675      9673      9676      9677
      9675      9673      9676      9678      9675      9673      9676      9679
      9676      9679      9682      9683      9676      9679      9682      9684
      9676      9679      9682      9685      9677      9676      9679      9680
      9677      9676      9679      9681      9677      9676      9679      9682
      9678      9676      9679      9680      9678      9676      9679      9681
      9678      9676      9679      9682      9679      9682      9685      9686
      9679      9682      9685      9687      9679      9682      9685      9688
      9680      9679      9682      9683      9680      9679      9682      9684
      9680      9679      9682      9685      9681      9679      9682      9683
      9681      9679      9682      9684      9681      9679      9682      9685
      9682      9685      9688      9689      9682      9685      9688      9690
      9682      9685      9688      9691      9683      9682      9685      9686
      9683      9682      9685      9687      9683      9682      9685      9688
      9684      9682      9685      9686      9684      9682      9685      9687
      9684      9682      9685      9688      9685      9688      9691      9692
      9685      9688      9691      9693      9685      9688      9691      9694
      9686      9685      9688      9689      9686      9685      9688      9690
      9686      9685      9688      9691      9687      9685      9688      9689
      9687      9685      9688      9690      9687      9685      9688      9691
      9689      9688      9691      9692      9689      9688      9691      9693
      9689      9688      9691      9694      9690      9688      9691      9692
      9690      9688      9691      9693      9690      9688      9691      9694
      9695      9699      9702      9703      9695      9699      9702      9704
      9695      9699      9702      9708      9696      9695      9699      9700
      9696      9695      9699      9701      9696      9695      9699      9702
      9697      9695      9699      9700      9697      9695      9699      9701
      9697      9695      9699      9702      9698      9695      9699      9700
      9698      9695      9699      9701      9698      9695      9699      9702
      9699      9702      9708      9705      9700      9699      9702      9703
      9700      9699      9702      9704      9700      9699      9702      9708
      9701      9699      9702      9703      9701      9699      9702      9704
      9701      9699      9702      9708      9702      9708      9705      9706
      9702      9708      9705      9707      9702      9708      9705      9709
      9703      9702      9708      9705      9704      9702      9708      9705
      9705      9709      9710      9711      9705      9709      9710      9712
      9705      9709      9710      9713      9706      9705      9709      9710
      9707      9705      9709      9710      9708      9705      9709      9710
      9709      9710      9713      9714      9709      9710      9713      9715
      9709      9710      9713      9721      9710      9713      9715      9716
      9710      9713      9721      9722      9710      9713      9721      9723
      9710      9713      9721      9724      9711      9710      9713      9714
      9711      9710      9713      9715      9711      9710      9713      9721
      9712      9710      9713      9714      9712      9710      9713      9715
      9712      9710      9713      9721      9713      9715      9716      9717
      9713      9715      9716      9718      9713      9721      9724      9725
      9714      9713      9715      9716      9714      9713      9721      9722
      9714      9713      9721      9723      9714      9713      9721      9724
      9715      9713      9721      9722      9715      9713      9721      9723
      9715      9713      9721      9724      9715      9716      9718      9719
      9715      9716      9718      9720      9715      9716      9718      9730
      9716      9715      9713      9721      9716      9718      9730      9731
      9716      9718      9730      9732      9716      9718      9730      9733
      9717      9716      9718      9719      9717      9716      9718      9720
      9717      9716      9718      9730      9718      9730      9733      9734
      9718      9730      9733      9735      9718      9730      9733      9736
      9719      9718      9730      9731      9719      9718      9730      9732
      9719      9718      9730      9733      9720      9718      9730      9731
      9720      9718      9730      9732      9720      9718      9730      9733
      9721      9724      9725      9726      9721      9724      9725      9727
      9722      9721      9724      9725      9723      9721      9724      9725
      9724      9725      9727      9728      9724      9725      9727      9729
      9724      9725      9727      9777      9725      9727      9777      9778
      9725      9727      9777      9779      9725      9727      9777      9780
      9726      9725      9727      9728      9726      9725      9727      9729
      9726      9725      9727      9777      9727      9777      9780      9781
      9727      9777      9780      9782      9727      9777      9780      9783
      9728      9727      9777      9778      9728      9727      9777      9779
      9728      9727      9777      9780      9729      9727      9777      9778
      9729      9727      9777      9779      9729      9727      9777      9780
      9730      9733      9736      9737      9730      9733      9736      9738
      9731      9730      9733      9734      9731      9730      9733      9735
      9731      9730      9733      9736      9732      9730      9733      9734
      9732      9730      9733      9735      9732      9730      9733      9736
      9733      9736      9738      9739      9733      9736      9738      9740
      9734      9733      9736      9737      9734      9733      9736      9738
      9735      9733      9736      9737      9735      9733      9736      9738
      9736      9738      9740      9741      9736      9738      9740      9742
      9736      9738      9740      9743      9737      9736      9738      9739
      9737      9736      9738      9740      9738      9740      9743      9744
      9738      9740      9743      9745      9739      9738      9740      9741
      9739      9738      9740      9742      9739      9738      9740      9743
      9740      9743      9745      9746      9740      9743      9745      9747
      9741      9740      9743      9744      9741      9740      9743      9745
      9742      9740      9743      9744      9742      9740      9743      9745
      9743      9745      9747      9748      9743      9745      9747      9749
      9743      9745      9747      9750      9744      9743      9745      9746
      9744      9743      9745      9747      9745      9747      9750      9751
      9745      9747      9750      9752      9746      9745      9747      9748
      9746      9745      9747      9749      9746      9745      9747      9750
      9747      9750      9752      9753      9747      9750      9752      9754
      9748      9747      9750      9751      9748      9747      9750      9752
      9749      9747      9750      9751      9749      9747      9750      9752
      9750      9752      9754      9755      9750      9752      9754      9756
      9750      9752      9754      9757      9751      9750      9752      9753
      9751      9750      9752      9754      9752      9754      9757      9758
      9752      9754      9757      9759      9753      9752      9754      9755
      9753      9752      9754      9756      9753      9752      9754      9757
      9754      9757      9759      9760      9754      9757      9759      9761
      9755      9754      9757      9758      9755      9754      9757      9759
      9756      9754      9757      9758      9756      9754      9757      9759
      9757      9759      9761      9762      9757      9759      9761      9763
      9757      9759      9761      9764      9758      9757      9759      9760
      9758      9757      9759      9761      9759      9761      9764      9765
      9759      9761      9764      9766      9759      9761      9764      9767
      9760      9759      9761      9762      9760      9759      9761      9763
      9760      9759      9761      9764      9761      9764      9767      9768
      9761      9764      9767      9769      9761      9764      9767      9770
      9762      9761      9764      9765      9762      9761      9764      9766
      9762      9761      9764      9767      9763      9761      9764      9765
      9763      9761      9764      9766      9763      9761      9764      9767
      9764      9767      9770      9771      9764      9767      9770      9772
      9764      9767      9770      9773      9765      9764      9767      9768
      9765      9764      9767      9769      9765      9764      9767      9770
      9766      9764      9767      9768      9766      9764      9767      9769
      9766      9764      9767      9770      9767      9770      9773      9774
      9767      9770      9773      9775      9767      9770      9773      9776
      9768      9767      9770      9771      9768      9767      9770      9772
      9768      9767      9770      9773      9769      9767      9770      9771
      9769      9767      9770      9772      9769      9767      9770      9773
      9771      9770      9773      9774      9771      9770      9773      9775
      9771      9770      9773      9776      9772      9770      9773      9774
      9772      9770      9773      9775      9772      9770      9773      9776
      9777      9780      9783      9784      9777      9780      9783      9785
      9777      9780      9783      9786      9778      9777      9780      9781
      9778      9777      9780      9782      9778      9777      9780      9783
      9779      9777      9780      9781      9779      9777      9780      9782
      9779      9777      9780      9783      9780      9783      9786      9787
      9780      9783      9786      9788      9780      9783      9786      9789
      9781      9780      9783      9784      9781      9780      9783      9785
      9781      9780      9783      9786      9782      9780      9783      9784
      9782      9780      9783      9785      9782      9780      9783      9786
      9783      9786      9789      9790      9783      9786      9789      9791
      9783      9786      9789      9792      9784      9783      9786      9787
      9784      9783      9786      9788      9784      9783      9786      9789
      9785      9783      9786      9787      9785      9783      9786      9788
      9785      9783      9786      9789      9786      9789      9792      9793
      9786      9789      9792      9794      9786      9789      9792      9795
      9787      9786      9789      9790      9787      9786      9789      9791
      9787      9786      9789      9792      9788      9786      9789      9790
      9788      9786      9789      9791      9788      9786      9789      9792
      9789      9792      9795      9796      9789      9792      9795      9797
      9789      9792      9795      9798      9790      9789      9792      9793
      9790      9789      9792      9794      9790      9789      9792      9795
      9791      9789      9792      9793      9791      9789      9792      9794
      9791      9789      9792      9795      9792      9795      9798      9799
      9792      9795      9798      9800      9792      9795      9798      9801
      9793      9792      9795      9796      9793      9792      9795      9797
      9793      9792      9795      9798      9794      9792      9795      9796
      9794      9792      9795      9797      9794      9792      9795      9798
      9795      9798      9801      9802      9795      9798      9801      9803
      9795      9798      9801      9804      9796      9795      9798      9799
      9796      9795      9798      9800      9796      9795      9798      9801
      9797      9795      9798      9799      9797      9795      9798      9800
      9797      9795      9798      9801      9798      9801      9804      9805
      9798      9801      9804      9806      9798      9801      9804      9807
      9799      9798      9801      9802      9799      9798      9801      9803
      9799      9798      9801      9804      9800      9798      9801      9802
      9800      9798      9801      9803      9800      9798      9801      9804
      9801      9804      9807      9808      9801      9804      9807      9809
      9801      9804      9807      9810      9802      9801      9804      9805
      9802      9801      9804      9806      9802      9801      9804      9807
      9803      9801      9804      9805      9803      9801      9804      9806
      9803      9801      9804      9807      9804      9807      9810      9811
      9804      9807      9810      9812      9804      9807      9810      9813
      9805      9804      9807      9808      9805      9804      9807      9809
      9805      9804      9807      9810      9806      9804      9807      9808
      9806      9804      9807      9809      9806      9804      9807      9810
      9807      9810      9813      9814      9807      9810      9813      9815
      9807      9810      9813      9816      9808      9807      9810      9811
      9808      9807      9810      9812      9808      9807      9810      9813
      9809      9807      9810      9811      9809      9807      9810      9812
      9809      9807      9810      9813      9810      9813      9816      9817
      9810      9813      9816      9818      9810      9813      9816      9819
      9811      9810      9813      9814      9811      9810      9813      9815
      9811      9810      9813      9816      9812      9810      9813      9814
      9812      9810      9813      9815      9812      9810      9813      9816
      9813      9816      9819      9820      9813      9816      9819      9821
      9813      9816      9819      9822      9814      9813      9816      9817
      9814      9813      9816      9818      9814      9813      9816      9819
      9815      9813      9816      9817      9815      9813      9816      9818
      9815      9813      9816      9819      9816      9819      9822      9823
      9816      9819      9822      9824      9816      9819      9822      9825
      9817      9816      9819      9820      9817      9816      9819      9821
      9817      9816      9819      9822      9818      9816      9819      9820
      9818      9816      9819      9821      9818      9816      9819      9822
      9820      9819      9822      9823      9820      9819      9822      9824
      9820      9819      9822      9825      9821      9819      9822      9823
      9821      9819      9822      9824      9821      9819      9822      9825
      9826      9830      9833      9834      9826      9830      9833      9864
      9826      9872      9869      9864      9826      9872      9869      9870
      9826      9872      9869      9871      9827      9826      9828      9829
      9827      9826      9830      9831      9827      9826      9830      9832
      9827      9826      9830      9833      9827      9826      9872      9869
      9827      9826      9872      9873      9827      9826      9872      9874
      9828      9826      9830      9831      9828      9826      9830      9832
      9828      9826      9830      9833      9828      9826      9872      9869
      9828      9826      9872      9873      9828      9826      9872      9874
      9829      9828      9826      9830      9829      9828      9826      9872
      9830      9826      9872      9869      9830      9826      9872      9873
      9830      9826      9872      9874      9830      9833      9834      9835
      9830      9833      9834      9836      9830      9833      9864      9862
      9830      9833      9864      9865      9830      9833      9864      9869
      9831      9830      9826      9872      9831      9830      9833      9834
      9831      9830      9833      9864      9832      9830      9826      9872
      9832      9830      9833      9834      9832      9830      9833      9864
      9833      9830      9826      9872      9833      9834      9836      9837
      9833      9834      9836      9838      9833      9834      9836      9839
      9833      9864      9862      9839      9833      9864      9862      9859
      9833      9864      9862      9863      9833      9864      9865      9866
      9833      9864      9865      9867      9833      9864      9865      9868
      9833      9864      9869      9870      9833      9864      9869      9871
      9833      9864      9869      9872      9834      9833      9864      9862
      9834      9833      9864      9865      9834      9833      9864      9869
      9834      9836      9839      9840      9834      9836      9839      9841
      9834      9836      9839      9862      9835      9834      9833      9864
      9835      9834      9836      9837      9835      9834      9836      9838
      9835      9834      9836      9839      9836      9834      9833      9864
      9836      9839      9841      9842      9836      9839      9841      9843
      9836      9839      9841      9851      9836      9839      9862      9859
      9836      9839      9862      9863      9836      9839      9862      9864
      9837      9836      9839      9840      9837      9836      9839      9841
      9837      9836      9839      9862      9838      9836      9839      9840
      9838      9836      9839      9841      9838      9836      9839      9862
      9839      9841      9843      9844      9839      9841      9843      9845
      9839      9841      9843      9846      9839      9841      9851      9849
      9839      9841      9851      9852      9839      9841      9851      9856
      9839      9862      9859      9856      9839      9862      9859      9860
      9839      9862      9859      9861      9839      9862      9864      9865
      9839      9862      9864      9869      9840      9839      9841      9842
      9840      9839      9841      9843      9840      9839      9841      9851
      9840      9839      9862      9859      9840      9839      9862      9863
      9840      9839      9862      9864      9841      9839      9862      9859
      9841      9839      9862      9863      9841      9839      9862      9864
      9841      9843      9846      9847      9841      9843      9846      9848
      9841      9843      9846      9849      9841      9851      9849      9846
      9841      9851      9849      9850      9841      9851      9849      9875
      9841      9851      9852      9853      9841      9851      9852      9854
      9841      9851      9852      9855      9841      9851      9856      9857
      9841      9851      9856      9858      9841      9851      9856      9859
      9842      9841      9839      9862      9842      9841      9843      9844
      9842      9841      9843      9845      9842      9841      9843      9846
      9842      9841      9851      9849      9842      9841      9851      9852
      9842      9841      9851      9856      9843      9841      9839      9862
      9843      9841      9851      9849      9843      9841      9851      9852
      9843      9841      9851      9856      9843      9846      9849      9850
      9843      9846      9849      9851      9843      9846      9849      9875
      9844      9843      9841      9851      9844      9843      9846      9847
      9844      9843      9846      9848      9844      9843      9846      9849
      9845      9843      9841      9851      9845      9843      9846      9847
      9845      9843      9846      9848      9845      9843      9846      9849
      9846      9843      9841      9851      9846      9849      9851      9852
      9846      9849      9851      9856      9846      9849      9875      9876
      9846      9849      9875      9877      9846      9849      9875      9881
      9847      9846      9849      9850      9847      9846      9849      9851
      9847      9846      9849      9875      9848      9846      9849      9850
      9848      9846      9849      9851      9848      9846      9849      9875
      9849      9851      9852      9853      9849      9851      9852      9854
      9849      9851      9852      9855      9849      9851      9856      9857
      9849      9851      9856      9858      9849      9851      9856      9859
      9849      9875      9877      9878      9849      9875      9877      9879
      9849      9875      9877      9880      9849      9875      9881      9882
      9849      9875      9881      9883      9849      9875      9881      9884
      9850      9849      9851      9852      9850      9849      9851      9856
      9850      9849      9875      9876      9850      9849      9875      9877
      9850      9849      9875      9881      9851      9841      9839      9862
      9851      9849      9875      9876      9851      9849      9875      9877
      9851      9849      9875      9881      9851      9856      9859      9860
      9851      9856      9859      9861      9851      9856      9859      9862
      9852      9851      9849      9875      9852      9851      9856      9857
      9852      9851      9856      9858      9852      9851      9856      9859
      9853      9852      9851      9856      9854      9852      9851      9856
      9855      9852      9851      9856      9856      9851      9849      9875
      9856      9859      9862      9863      9856      9859      9862      9864
      9857      9856      9859      9860      9857      9856      9859      9861
      9857      9856      9859      9862      9858      9856      9859      9860
      9858      9856      9859      9861      9858      9856      9859      9862
      9859      9862      9864      9865      9859      9862      9864      9869
      9860      9859      9862      9863      9860      9859      9862      9864
      9861      9859      9862      9863      9861      9859      9862      9864
      9862      9864      9865      9866      9862      9864      9865      9867
      9862      9864      9865      9868      9862      9864      9869      9870
      9862      9864      9869      9871      9862      9864      9869      9872
      9863      9862      9864      9865      9863      9862      9864      9869
      9864      9869      9872      9873      9864      9869      9872      9874
      9865      9864      9869      9870      9865      9864      9869      9871
      9865      9864      9869      9872      9866      9865      9864      9869
      9867      9865      9864      9869      9868      9865      9864      9869
      9870      9869      9872      9873      9870      9869      9872      9874
      9871      9869      9872      9873      9871      9869      9872      9874
      9875      9881      9884      9885      9875      9881      9884      9886
      9875      9881      9884      9887      9876      9875      9877      9878
      9876      9875      9877      9879      9876      9875      9877      9880
      9876      9875      9881      9882      9876      9875      9881      9883
      9876      9875      9881      9884      9877      9875      9881      9882
      9877      9875      9881      9883      9877      9875      9881      9884
      9878      9877      9875      9881      9879      9877      9875      9881
      9880      9877      9875      9881      9881      9884      9887      9888
      9881      9884      9887      9889      9881      9884      9887      9890
      9882      9881      9884      9885      9882      9881      9884      9886
      9882      9881      9884      9887      9883      9881      9884      9885
      9883      9881      9884      9886      9883      9881      9884      9887
      9884      9887      9890      9891      9884      9887      9890      9892
      9884      9887      9890      9896      9885      9884      9887      9888
      9885      9884      9887      9889      9885      9884      9887      9890
      9886      9884      9887      9888      9886      9884      9887      9889
      9886      9884      9887      9890      9887      9890      9892      9893
      9887      9890      9892      9894      9887      9890      9892      9895
      9887      9890      9896      9897      9887      9890      9896      9898
      9887      9890      9896      9899      9888      9887      9890      9891
      9888      9887      9890      9892      9888      9887      9890      9896
      9889      9887      9890      9891      9889      9887      9890      9892
      9889      9887      9890      9896      9891      9890      9892      9893
      9891      9890      9892      9894      9891      9890      9892      9895
      9891      9890      9896      9897      9891      9890      9896      9898
      9891      9890      9896      9899      9892      9890      9896      9897
      9892      9890      9896      9898      9892      9890      9896      9899
      9893      9892      9890      9896      9894      9892      9890      9896
      9895      9892      9890      9896      9900      9904      9906      9907
      9900      9904      9906      9908      9900      9904      9909      9910
      9900      9904      9909      9911      9900      9904      9909      9915
      9901      9900      9904      9905      9901      9900      9904      9906
      9901      9900      9904      9909      9902      9900      9904      9905
      9902      9900      9904      9906      9902      9900      9904      9909
      9903      9900      9904      9905      9903      9900      9904      9906
      9903      9900      9904      9909      9904      9909      9915      9912
      9905      9904      9906      9907      9905      9904      9906      9908
      9905      9904      9909      9910      9905      9904      9909      9911
      9905      9904      9909      9915      9906      9904      9909      9910
      9906      9904      9909      9911      9906      9904      9909      9915
      9907      9906      9904      9909      9908      9906      9904      9909
      9909      9915      9912      9913      9909      9915      9912      9914
      9909      9915      9912      9916      9910      9909      9915      9912
      9911      9909      9915      9912      9912      9916      9917      9918
      9912      9916      9917      9919      9912      9916      9917      9920
      9913      9912      9916      9917      9914      9912      9916      9917
      9915      9912      9916      9917      9916      9917      9920      9921
      9916      9917      9920      9922      9916      9917      9920      9928
      9917      9920      9922      9923      9917      9920      9928      9929
      9917      9920      9928      9930      9917      9920      9928      9931
      9918      9917      9920      9921      9918      9917      9920      9922
      9918      9917      9920      9928      9919      9917      9920      9921
      9919      9917      9920      9922      9919      9917      9920      9928
      9920      9922      9923      9924      9920      9922      9923      9925
      9920      9928      9931      9932      9921      9920      9922      9923
      9921      9920      9928      9929      9921      9920      9928      9930
      9921      9920      9928      9931      9922      9920      9928      9929
      9922      9920      9928      9930      9922      9920      9928      9931
      9922      9923      9925      9926      9922      9923      9925      9927
      9922      9923      9925      9937      9923      9922      9920      9928
      9923      9925      9937      9938      9923      9925      9937      9939
      9923      9925      9937      9940      9924      9923      9925      9926
      9924      9923      9925      9927      9924      9923      9925      9937
      9925      9937      9940      9941      9925      9937      9940      9942
      9925      9937      9940      9943      9926      9925      9937      9938
      9926      9925      9937      9939      9926      9925      9937      9940
      9927      9925      9937      9938      9927      9925      9937      9939
      9927      9925      9937      9940      9928      9931      9932      9933
      9928      9931      9932      9934      9929      9928      9931      9932
      9930      9928      9931      9932      9931      9932      9934      9935
      9931      9932      9934      9936      9931      9932      9934      9984
      9932      9934      9984      9985      9932      9934      9984      9986
      9932      9934      9984      9987      9933      9932      9934      9935
      9933      9932      9934      9936      9933      9932      9934      9984
      9934      9984      9987      9988      9934      9984      9987      9989
      9934      9984      9987      9990      9935      9934      9984      9985
      9935      9934      9984      9986      9935      9934      9984      9987
      9936      9934      9984      9985      9936      9934      9984      9986
      9936      9934      9984      9987      9937      9940      9943      9944
      9937      9940      9943      9945      9938      9937      9940      9941
      9938      9937      9940      9942      9938      9937      9940      9943
      9939      9937      9940      9941      9939      9937      9940      9942
      9939      9937      9940      9943      9940      9943      9945      9946
      9940      9943      9945      9947      9941      9940      9943      9944
      9941      9940      9943      9945      9942      9940      9943      9944
      9942      9940      9943      9945      9943      9945      9947      9948
      9943      9945      9947      9949      9943      9945      9947      9950
      9944      9943      9945      9946      9944      9943      9945      9947
      9945      9947      9950      9951      9945      9947      9950      9952
      9946      9945      9947      9948      9946      9945      9947      9949
      9946      9945      9947      9950      9947      9950      9952      9953
      9947      9950      9952      9954      9948      9947      9950      9951
      9948      9947      9950      9952      9949      9947      9950      9951
      9949      9947      9950      9952      9950      9952      9954      9955
      9950      9952      9954      9956      9950      9952      9954      9957
      9951      9950      9952      9953      9951      9950      9952      9954
      9952      9954      9957      9958      9952      9954      9957      9959
      9953      9952      9954      9955      9953      9952      9954      9956
      9953      9952      9954      9957      9954      9957      9959      9960
      9954      9957      9959      9961      9955      9954      9957      9958
      9955      9954      9957      9959      9956      9954      9957      9958
      9956      9954      9957      9959      9957      9959      9961      9962
      9957      9959      9961      9963      9957      9959      9961      9964
      9958      9957      9959      9960      9958      9957      9959      9961
      9959      9961      9964      9965      9959      9961      9964      9966
      9960      9959      9961      9962      9960      9959      9961      9963
      9960      9959      9961      9964      9961      9964      9966      9967
      9961      9964      9966      9968      9962      9961      9964      9965
      9962      9961      9964      9966      9963      9961      9964      9965
      9963      9961      9964      9966      9964      9966      9968      9969
      9964      9966      9968      9970      9964      9966      9968      9971
      9965      9964      9966      9967      9965      9964      9966      9968
      9966      9968      9971      9972      9966      9968      9971      9973
      9966      9968      9971      9974      9967      9966      9968      9969
      9967      9966      9968      9970      9967      9966      9968      9971
      9968      9971      9974      9975      9968      9971      9974      9976
      9968      9971      9974      9977      9969      9968      9971      9972
      9969      9968      9971      9973      9969      9968      9971      9974
      9970      9968      9971      9972      9970      9968      9971      9973
      9970      9968      9971      9974      9971      9974      9977      9978
      9971      9974      9977      9979      9971      9974      9977      9980
      9972      9971      9974      9975      9972      9971      9974      9976
      9972      9971      9974      9977      9973      9971      9974      9975
      9973      9971      9974      9976      9973      9971      9974      9977
      9974      9977      9980      9981      9974      9977      9980      9982
      9974      9977      9980      9983      9975      9974      9977      9978
      9975      9974      9977      9979      9975      9974      9977      9980
      9976      9974      9977      9978      9976      9974      9977      9979
      9976      9974      9977      9980      9978      9977      9980      9981
      9978      9977      9980      9982      9978      9977      9980      9983
      9979      9977      9980      9981      9979      9977      9980      9982
      9979      9977      9980      9983      9984      9987      9990      9991
      9984      9987      9990      9992      9984      9987      9990      9993
      9985      9984      9987      9988      9985      9984      9987      9989
      9985      9984      9987      9990      9986      9984      9987      9988
      9986      9984      9987      9989      9986      9984      9987      9990
      9987      9990      9993      9994      9987      9990      9993      9995
      9987      9990      9993      9996      9988      9987      9990      9991
      9988      9987      9990      9992      9988      9987      9990      9993
      9989      9987      9990      9991      9989      9987      9990      9992
      9989      9987      9990      9993      9990      9993      9996      9997
      9990      9993      9996      9998      9990      9993      9996      9999
      9991      9990      9993      9994      9991      9990      9993      9995
      9991      9990      9993      9996      9992      9990      9993      9994
      9992      9990      9993      9995      9992      9990      9993      9996
      9993      9996      9999     10000      9993      9996      9999     10001
      9993      9996      9999     10002      9994      9993      9996      9997
      9994      9993      9996      9998      9994      9993      9996      9999
      9995      9993      9996      9997      9995      9993      9996      9998
      9995      9993      9996      9999      9996      9999     10002     10003
      9996      9999     10002     10004      9996      9999     10002     10005
      9997      9996      9999     10000      9997      9996      9999     10001
      9997      9996      9999     10002      9998      9996      9999     10000
      9998      9996      9999     10001      9998      9996      9999     10002
      9999     10002     10005     10006      9999     10002     10005     10007
      9999     10002     10005     10008     10000      9999     10002     10003
     10000      9999     10002     10004     10000      9999     10002     10005
     10001      9999     10002     10003     10001      9999     10002     10004
     10001      9999     10002     10005     10002     10005     10008     10009
     10002     10005     10008     10010     10002     10005     10008     10011
     10003     10002     10005     10006     10003     10002     10005     10007
     10003     10002     10005     10008     10004     10002     10005     10006
     10004     10002     10005     10007     10004     10002     10005     10008
     10005     10008     10011     10012     10005     10008     10011     10013
     10005     10008     10011     10014     10006     10005     10008     10009
     10006     10005     10008     10010     10006     10005     10008     10011
     10007     10005     10008     10009     10007     10005     10008     10010
     10007     10005     10008     10011     10008     10011     10014     10015
     10008     10011     10014     10016     10008     10011     10014     10017
     10009     10008     10011     10012     10009     10008     10011     10013
     10009     10008     10011     10014     10010     10008     10011     10012
     10010     10008     10011     10013     10010     10008     10011     10014
     10011     10014     10017     10018     10011     10014     10017     10019
     10011     10014     10017     10020     10012     10011     10014     10015
     10012     10011     10014     10016     10012     10011     10014     10017
     10013     10011     10014     10015     10013     10011     10014     10016
     10013     10011     10014     10017     10014     10017     10020     10021
     10014     10017     10020     10022     10014     10017     10020     10023
     10015     10014     10017     10018     10015     10014     10017     10019
     10015     10014     10017     10020     10016     10014     10017     10018
     10016     10014     10017     10019     10016     10014     10017     10020
     10017     10020     10023     10024     10017     10020     10023     10025
     10017     10020     10023     10026     10018     10017     10020     10021
     10018     10017     10020     10022     10018     10017     10020     10023
     10019     10017     10020     10021     10019     10017     10020     10022
     10019     10017     10020     10023     10020     10023     10026     10027
     10020     10023     10026     10028     10020     10023     10026     10029
     10021     10020     10023     10024     10021     10020     10023     10025
     10021     10020     10023     10026     10022     10020     10023     10024
     10022     10020     10023     10025     10022     10020     10023     10026
     10023     10026     10029     10030     10023     10026     10029     10031
     10023     10026     10029     10032     10024     10023     10026     10027
     10024     10023     10026     10028     10024     10023     10026     10029
     10025     10023     10026     10027     10025     10023     10026     10028
     10025     10023     10026     10029     10027     10026     10029     10030
     10027     10026     10029     10031     10027     10026     10029     10032
     10028     10026     10029     10030     10028     10026     10029     10031
     10028     10026     10029     10032     10033     10037     10040     10041
     10033     10037     10040     10071     10033     10079     10076     10071
     10033     10079     10076     10077     10033     10079     10076     10078
     10034     10033     10035     10036     10034     10033     10037     10038
     10034     10033     10037     10039     10034     10033     10037     10040
     10034     10033     10079     10076     10034     10033     10079     10080
     10034     10033     10079     10081     10035     10033     10037     10038
     10035     10033     10037     10039     10035     10033     10037     10040
     10035     10033     10079     10076     10035     10033     10079     10080
     10035     10033     10079     10081     10036     10035     10033     10037
     10036     10035     10033     10079     10037     10033     10079     10076
     10037     10033     10079     10080     10037     10033     10079     10081
     10037     10040     10041     10042     10037     10040     10041     10043
     10037     10040     10071     10069     10037     10040     10071     10072
     10037     10040     10071     10076     10038     10037     10033     10079
     10038     10037     10040     10041     10038     10037     10040     10071
     10039     10037     10033     10079     10039     10037     10040     10041
     10039     10037     10040     10071     10040     10037     10033     10079
     10040     10041     10043     10044     10040     10041     10043     10045
     10040     10041     10043     10046     10040     10071     10069     10046
     10040     10071     10069     10066     10040     10071     10069     10070
     10040     10071     10072     10073     10040     10071     10072     10074
     10040     10071     10072     10075     10040     10071     10076     10077
     10040     10071     10076     10078     10040     10071     10076     10079
     10041     10040     10071     10069     10041     10040     10071     10072
     10041     10040     10071     10076     10041     10043     10046     10047
     10041     10043     10046     10048     10041     10043     10046     10069
     10042     10041     10040     10071     10042     10041     10043     10044
     10042     10041     10043     10045     10042     10041     10043     10046
     10043     10041     10040     10071     10043     10046     10048     10049
     10043     10046     10048     10050     10043     10046     10048     10058
     10043     10046     10069     10066     10043     10046     10069     10070
     10043     10046     10069     10071     10044     10043     10046     10047
     10044     10043     10046     10048     10044     10043     10046     10069
     10045     10043     10046     10047     10045     10043     10046     10048
     10045     10043     10046     10069     10046     10048     10050     10051
     10046     10048     10050     10052     10046     10048     10050     10053
     10046     10048     10058     10056     10046     10048     10058     10059
     10046     10048     10058     10063     10046     10069     10066     10063
     10046     10069     10066     10067     10046     10069     10066     10068
     10046     10069     10071     10072     10046     10069     10071     10076
     10047     10046     10048     10049     10047     10046     10048     10050
     10047     10046     10048     10058     10047     10046     10069     10066
     10047     10046     10069     10070     10047     10046     10069     10071
     10048     10046     10069     10066     10048     10046     10069     10070
     10048     10046     10069     10071     10048     10050     10053     10054
     10048     10050     10053     10055     10048     10050     10053     10056
     10048     10058     10056     10053     10048     10058     10056     10057
     10048     10058     10056     10082     10048     10058     10059     10060
     10048     10058     10059     10061     10048     10058     10059     10062
     10048     10058     10063     10064     10048     10058     10063     10065
     10048     10058     10063     10066     10049     10048     10046     10069
     10049     10048     10050     10051     10049     10048     10050     10052
     10049     10048     10050     10053     10049     10048     10058     10056
     10049     10048     10058     10059     10049     10048     10058     10063
     10050     10048     10046     10069     10050     10048     10058     10056
     10050     10048     10058     10059     10050     10048     10058     10063
     10050     10053     10056     10057     10050     10053     10056     10058
     10050     10053     10056     10082     10051     10050     10048     10058
     10051     10050     10053     10054     10051     10050     10053     10055
     10051     10050     10053     10056     10052     10050     10048     10058
     10052     10050     10053     10054     10052     10050     10053     10055
     10052     10050     10053     10056     10053     10050     10048     10058
     10053     10056     10058     10059     10053     10056     10058     10063
     10053     10056     10082     10083     10053     10056     10082     10084
     10053     10056     10082     10088     10054     10053     10056     10057
     10054     10053     10056     10058     10054     10053     10056     10082
     10055     10053     10056     10057     10055     10053     10056     10058
     10055     10053     10056     10082     10056     10058     10059     10060
     10056     10058     10059     10061     10056     10058     10059     10062
     10056     10058     10063     10064     10056     10058     10063     10065
     10056     10058     10063     10066     10056     10082     10084     10085
     10056     10082     10084     10086     10056     10082     10084     10087
     10056     10082     10088     10089     10056     10082     10088     10090
     10056     10082     10088     10091     10057     10056     10058     10059
     10057     10056     10058     10063     10057     10056     10082     10083
     10057     10056     10082     10084     10057     10056     10082     10088
     10058     10048     10046     10069     10058     10056     10082     10083
     10058     10056     10082     10084     10058     10056     10082     10088
     10058     10063     10066     10067     10058     10063     10066     10068
     10058     10063     10066     10069     10059     10058     10056     10082
     10059     10058     10063     10064     10059     10058     10063     10065
     10059     10058     10063     10066     10060     10059     10058     10063
     10061     10059     10058     10063     10062     10059     10058     10063
     10063     10058     10056     10082     10063     10066     10069     10070
     10063     10066     10069     10071     10064     10063     10066     10067
     10064     10063     10066     10068     10064     10063     10066     10069
     10065     10063     10066     10067     10065     10063     10066     10068
     10065     10063     10066     10069     10066     10069     10071     10072
     10066     10069     10071     10076     10067     10066     10069     10070
     10067     10066     10069     10071     10068     10066     10069     10070
     10068     10066     10069     10071     10069     10071     10072     10073
     10069     10071     10072     10074     10069     10071     10072     10075
     10069     10071     10076     10077     10069     10071     10076     10078
     10069     10071     10076     10079     10070     10069     10071     10072
     10070     10069     10071     10076     10071     10076     10079     10080
     10071     10076     10079     10081     10072     10071     10076     10077
     10072     10071     10076     10078     10072     10071     10076     10079
     10073     10072     10071     10076     10074     10072     10071     10076
     10075     10072     10071     10076     10077     10076     10079     10080
     10077     10076     10079     10081     10078     10076     10079     10080
     10078     10076     10079     10081     10082     10088     10091     10092
     10082     10088     10091     10093     10082     10088     10091     10094
     10083     10082     10084     10085     10083     10082     10084     10086
     10083     10082     10084     10087     10083     10082     10088     10089
     10083     10082     10088     10090     10083     10082     10088     10091
     10084     10082     10088     10089     10084     10082     10088     10090
     10084     10082     10088     10091     10085     10084     10082     10088
     10086     10084     10082     10088     10087     10084     10082     10088
     10088     10091     10094     10095     10088     10091     10094     10096
     10088     10091     10094     10097     10089     10088     10091     10092
     10089     10088     10091     10093     10089     10088     10091     10094
     10090     10088     10091     10092     10090     10088     10091     10093
     10090     10088     10091     10094     10091     10094     10097     10098
     10091     10094     10097     10099     10091     10094     10097     10103
     10092     10091     10094     10095     10092     10091     10094     10096
     10092     10091     10094     10097     10093     10091     10094     10095
     10093     10091     10094     10096     10093     10091     10094     10097
     10094     10097     10099     10100     10094     10097     10099     10101
     10094     10097     10099     10102     10094     10097     10103     10104
     10094     10097     10103     10105     10094     10097     10103     10106
     10095     10094     10097     10098     10095     10094     10097     10099
     10095     10094     10097     10103     10096     10094     10097     10098
     10096     10094     10097     10099     10096     10094     10097     10103
     10098     10097     10099     10100     10098     10097     10099     10101
     10098     10097     10099     10102     10098     10097     10103     10104
     10098     10097     10103     10105     10098     10097     10103     10106
     10099     10097     10103     10104     10099     10097     10103     10105
     10099     10097     10103     10106     10100     10099     10097     10103
     10101     10099     10097     10103     10102     10099     10097     10103
     10107     10120     10123     10124     10107     10120     10123     10125
     10107     10120     10123     10130     10108     10107     10112     10113
     10108     10107     10112     10114     10108     10107     10112     10115
     10108     10107     10116     10117     10108     10107     10116     10118
     10108     10107     10116     10119     10108     10107     10120     10121
     10108     10107     10120     10122     10108     10107     10120     10123
     10109     10108     10107     10112     10109     10108     10107     10116
     10109     10108     10107     10120     10110     10108     10107     10112
     10110     10108     10107     10116     10110     10108     10107     10120
     10111     10108     10107     10112     10111     10108     10107     10116
     10111     10108     10107     10120     10112     10107     10116     10117
     10112     10107     10116     10118     10112     10107     10116     10119
     10112     10107     10120     10121     10112     10107     10120     10122
     10112     10107     10120     10123     10113     10112     10107     10116
     10113     10112     10107     10120     10114     10112     10107     10116
     10114     10112     10107     10120     10115     10112     10107     10116
     10115     10112     10107     10120     10116     10107     10120     10121
     10116     10107     10120     10122     10116     10107     10120     10123
     10117     10116     10107     10120     10118     10116     10107     10120
     10119     10116     10107     10120     10120     10123     10130     10126
     10121     10120     10123     10124     10121     10120     10123     10125
     10121     10120     10123     10130     10122     10120     10123     10124
     10122     10120     10123     10125     10122     10120     10123     10130
     10123     10130     10126     10127     10123     10130     10126     10128
     10123     10130     10126     10129     10124     10123     10130     10126
     10125     10123     10130     10126     10126     10129     10131     10132
     10126     10129     10131     10133     10126     10129     10131     10136
     10127     10126     10129     10131     10128     10126     10129     10131
     10129     10131     10136     10134     10129     10131     10136     10137
     10129     10131     10136     10138     10130     10126     10129     10131
     10131     10136     10134     10135     10131     10136     10134     10186
     10131     10136     10138     10139     10131     10136     10138     10140
     10131     10136     10138     10142     10132     10131     10136     10134
     10132     10131     10136     10137     10132     10131     10136     10138
     10133     10131     10136     10134     10133     10131     10136     10137
     10133     10131     10136     10138     10134     10136     10138     10139
     10134     10136     10138     10140     10134     10136     10138     10142
     10134     10186     10188     10189     10134     10186     10188     10190
     10134     10186     10188     10191     10135     10134     10136     10137
     10135     10134     10136     10138     10135     10134     10186     10187
     10135     10134     10186     10188     10136     10134     10186     10187
     10136     10134     10186     10188     10136     10138     10140     10141
     10136     10138     10142     10143     10136     10138     10142     10144
     10137     10136     10134     10186     10137     10136     10138     10139
     10137     10136     10138     10140     10137     10136     10138     10142
     10138     10136     10134     10186     10138     10142     10144     10145
     10138     10142     10144     10146     10139     10138     10140     10141
     10139     10138     10142     10143     10139     10138     10142     10144
     10140     10138     10142     10143     10140     10138     10142     10144
     10141     10140     10138     10142     10142     10144     10146     10147
     10142     10144     10146     10148     10142     10144     10146     10149
     10143     10142     10144     10145     10143     10142     10144     10146
     10144     10146     10149     10150     10144     10146     10149     10151
     10144     10146     10149     10152     10145     10144     10146     10147
     10145     10144     10146     10148     10145     10144     10146     10149
     10146     10149     10152     10153     10146     10149     10152     10154
     10146     10149     10152     10155     10147     10146     10149     10150
     10147     10146     10149     10151     10147     10146     10149     10152
     10148     10146     10149     10150     10148     10146     10149     10151
     10148     10146     10149     10152     10149     10152     10155     10156
     10149     10152     10155     10157     10149     10152     10155     10158
     10150     10149     10152     10153     10150     10149     10152     10154
     10150     10149     10152     10155     10151     10149     10152     10153
     10151     10149     10152     10154     10151     10149     10152     10155
     10152     10155     10158     10159     10152     10155     10158     10160
     10152     10155     10158     10161     10153     10152     10155     10156
     10153     10152     10155     10157     10153     10152     10155     10158
     10154     10152     10155     10156     10154     10152     10155     10157
     10154     10152     10155     10158     10155     10158     10161     10162
     10155     10158     10161     10163     10155     10158     10161     10164
     10156     10155     10158     10159     10156     10155     10158     10160
     10156     10155     10158     10161     10157     10155     10158     10159
     10157     10155     10158     10160     10157     10155     10158     10161
     10158     10161     10164     10165     10158     10161     10164     10166
     10158     10161     10164     10167     10159     10158     10161     10162
     10159     10158     10161     10163     10159     10158     10161     10164
     10160     10158     10161     10162     10160     10158     10161     10163
     10160     10158     10161     10164     10161     10164     10167     10168
     10161     10164     10167     10169     10161     10164     10167     10170
     10162     10161     10164     10165     10162     10161     10164     10166
     10162     10161     10164     10167     10163     10161     10164     10165
     10163     10161     10164     10166     10163     10161     10164     10167
     10164     10167     10170     10171     10164     10167     10170     10172
     10164     10167     10170     10173     10165     10164     10167     10168
     10165     10164     10167     10169     10165     10164     10167     10170
     10166     10164     10167     10168     10166     10164     10167     10169
     10166     10164     10167     10170     10167     10170     10173     10174
     10167     10170     10173     10175     10167     10170     10173     10176
     10168     10167     10170     10171     10168     10167     10170     10172
     10168     10167     10170     10173     10169     10167     10170     10171
     10169     10167     10170     10172     10169     10167     10170     10173
     10170     10173     10176     10177     10170     10173     10176     10178
     10170     10173     10176     10179     10171     10170     10173     10174
     10171     10170     10173     10175     10171     10170     10173     10176
     10172     10170     10173     10174     10172     10170     10173     10175
     10172     10170     10173     10176     10173     10176     10179     10180
     10173     10176     10179     10181     10173     10176     10179     10182
     10174     10173     10176     10177     10174     10173     10176     10178
     10174     10173     10176     10179     10175     10173     10176     10177
     10175     10173     10176     10178     10175     10173     10176     10179
     10176     10179     10182     10183     10176     10179     10182     10184
     10176     10179     10182     10185     10177     10176     10179     10180
     10177     10176     10179     10181     10177     10176     10179     10182
     10178     10176     10179     10180     10178     10176     10179     10181
     10178     10176     10179     10182     10180     10179     10182     10183
     10180     10179     10182     10184     10180     10179     10182     10185
     10181     10179     10182     10183     10181     10179     10182     10184
     10181     10179     10182     10185     10186     10188     10191     10192
     10186     10188     10191     10193     10186     10188     10191     10194
     10187     10186     10188     10189     10187     10186     10188     10190
     10187     10186     10188     10191     10188     10191     10194     10195
     10188     10191     10194     10196     10188     10191     10194     10197
     10189     10188     10191     10192     10189     10188     10191     10193
     10189     10188     10191     10194     10190     10188     10191     10192
     10190     10188     10191     10193     10190     10188     10191     10194
     10191     10194     10197     10198     10191     10194     10197     10199
     10191     10194     10197     10200     10192     10191     10194     10195
     10192     10191     10194     10196     10192     10191     10194     10197
     10193     10191     10194     10195     10193     10191     10194     10196
     10193     10191     10194     10197     10194     10197     10200     10201
     10194     10197     10200     10202     10194     10197     10200     10203
     10195     10194     10197     10198     10195     10194     10197     10199
     10195     10194     10197     10200     10196     10194     10197     10198
     10196     10194     10197     10199     10196     10194     10197     10200
     10197     10200     10203     10204     10197     10200     10203     10205
     10197     10200     10203     10206     10198     10197     10200     10201
     10198     10197     10200     10202     10198     10197     10200     10203
     10199     10197     10200     10201     10199     10197     10200     10202
     10199     10197     10200     10203     10200     10203     10206     10207
     10200     10203     10206     10208     10200     10203     10206     10209
     10201     10200     10203     10204     10201     10200     10203     10205
     10201     10200     10203     10206     10202     10200     10203     10204
     10202     10200     10203     10205     10202     10200     10203     10206
     10203     10206     10209     10210     10203     10206     10209     10211
     10204     10203     10206     10207     10204     10203     10206     10208
     10204     10203     10206     10209     10205     10203     10206     10207
     10205     10203     10206     10208     10205     10203     10206     10209
     10206     10209     10211     10212     10206     10209     10211     10213
     10207     10206     10209     10210     10207     10206     10209     10211
     10208     10206     10209     10210     10208     10206     10209     10211
     10209     10211     10213     10214     10209     10211     10213     10215
     10209     10211     10213     10216     10210     10209     10211     10212
     10210     10209     10211     10213     10211     10213     10216     10217
     10211     10213     10216     10218     10211     10213     10216     10219
     10212     10211     10213     10214     10212     10211     10213     10215
     10212     10211     10213     10216     10213     10216     10219     10220
     10213     10216     10219     10221     10213     10216     10219     10222
     10214     10213     10216     10217     10214     10213     10216     10218
     10214     10213     10216     10219     10215     10213     10216     10217
     10215     10213     10216     10218     10215     10213     10216     10219
     10216     10219     10222     10223     10216     10219     10222     10224
     10216     10219     10222     10225     10217     10216     10219     10220
     10217     10216     10219     10221     10217     10216     10219     10222
     10218     10216     10219     10220     10218     10216     10219     10221
     10218     10216     10219     10222     10219     10222     10225     10226
     10219     10222     10225     10227     10219     10222     10225     10228
     10220     10219     10222     10223     10220     10219     10222     10224
     10220     10219     10222     10225     10221     10219     10222     10223
     10221     10219     10222     10224     10221     10219     10222     10225
     10222     10225     10228     10229     10222     10225     10228     10230
     10222     10225     10228     10231     10223     10222     10225     10226
     10223     10222     10225     10227     10223     10222     10225     10228
     10224     10222     10225     10226     10224     10222     10225     10227
     10224     10222     10225     10228     10225     10228     10231     10232
     10225     10228     10231     10233     10225     10228     10231     10234
     10226     10225     10228     10229     10226     10225     10228     10230
     10226     10225     10228     10231     10227     10225     10228     10229
     10227     10225     10228     10230     10227     10225     10228     10231
     10228     10231     10234     10235     10228     10231     10234     10236
     10228     10231     10234     10237     10229     10228     10231     10232
     10229     10228     10231     10233     10229     10228     10231     10234
     10230     10228     10231     10232     10230     10228     10231     10233
     10230     10228     10231     10234     10232     10231     10234     10235
     10232     10231     10234     10236     10232     10231     10234     10237
     10233     10231     10234     10235     10233     10231     10234     10236
     10233     10231     10234     10237     10238     10242     10245     10246
     10238     10242     10245     10247     10238     10242     10245     10251
     10239     10238     10242     10243     10239     10238     10242     10244
     10239     10238     10242     10245     10240     10238     10242     10243
     10240     10238     10242     10244     10240     10238     10242     10245
     10241     10238     10242     10243     10241     10238     10242     10244
     10241     10238     10242     10245     10242     10245     10251     10248
     10243     10242     10245     10246     10243     10242     10245     10247
     10243     10242     10245     10251     10244     10242     10245     10246
     10244     10242     10245     10247     10244     10242     10245     10251
     10245     10251     10248     10249     10245     10251     10248     10250
     10245     10251     10248     10252     10246     10245     10251     10248
     10247     10245     10251     10248     10248     10252     10253     10254
     10248     10252     10253     10255     10248     10252     10253     10256
     10249     10248     10252     10253     10250     10248     10252     10253
     10251     10248     10252     10253     10252     10253     10256     10257
     10252     10253     10256     10258     10252     10253     10256     10264
     10253     10256     10258     10259     10253     10256     10264     10265
     10253     10256     10264     10266     10253     10256     10264     10267
     10254     10253     10256     10257     10254     10253     10256     10258
     10254     10253     10256     10264     10255     10253     10256     10257
     10255     10253     10256     10258     10255     10253     10256     10264
     10256     10258     10259     10260     10256     10258     10259     10261
     10256     10264     10267     10268     10257     10256     10258     10259
     10257     10256     10264     10265     10257     10256     10264     10266
     10257     10256     10264     10267     10258     10256     10264     10265
     10258     10256     10264     10266     10258     10256     10264     10267
     10258     10259     10261     10262     10258     10259     10261     10263
     10258     10259     10261     10273     10259     10258     10256     10264
     10259     10261     10273     10274     10259     10261     10273     10275
     10259     10261     10273     10276     10260     10259     10261     10262
     10260     10259     10261     10263     10260     10259     10261     10273
     10261     10273     10276     10277     10261     10273     10276     10278
     10261     10273     10276     10279     10262     10261     10273     10274
     10262     10261     10273     10275     10262     10261     10273     10276
     10263     10261     10273     10274     10263     10261     10273     10275
     10263     10261     10273     10276     10264     10267     10268     10269
     10264     10267     10268     10270     10265     10264     10267     10268
     10266     10264     10267     10268     10267     10268     10270     10271
     10267     10268     10270     10272     10267     10268     10270     10320
     10268     10270     10320     10321     10268     10270     10320     10322
     10268     10270     10320     10323     10269     10268     10270     10271
     10269     10268     10270     10272     10269     10268     10270     10320
     10270     10320     10323     10324     10270     10320     10323     10325
     10270     10320     10323     10326     10271     10270     10320     10321
     10271     10270     10320     10322     10271     10270     10320     10323
     10272     10270     10320     10321     10272     10270     10320     10322
     10272     10270     10320     10323     10273     10276     10279     10280
     10273     10276     10279     10281     10274     10273     10276     10277
     10274     10273     10276     10278     10274     10273     10276     10279
     10275     10273     10276     10277     10275     10273     10276     10278
     10275     10273     10276     10279     10276     10279     10281     10282
     10276     10279     10281     10283     10277     10276     10279     10280
     10277     10276     10279     10281     10278     10276     10279     10280
     10278     10276     10279     10281     10279     10281     10283     10284
     10279     10281     10283     10285     10279     10281     10283     10286
     10280     10279     10281     10282     10280     10279     10281     10283
     10281     10283     10286     10287     10281     10283     10286     10288
     10282     10281     10283     10284     10282     10281     10283     10285
     10282     10281     10283     10286     10283     10286     10288     10289
     10283     10286     10288     10290     10284     10283     10286     10287
     10284     10283     10286     10288     10285     10283     10286     10287
     10285     10283     10286     10288     10286     10288     10290     10291
     10286     10288     10290     10292     10286     10288     10290     10293
     10287     10286     10288     10289     10287     10286     10288     10290
     10288     10290     10293     10294     10288     10290     10293     10295
     10289     10288     10290     10291     10289     10288     10290     10292
     10289     10288     10290     10293     10290     10293     10295     10296
     10290     10293     10295     10297     10291     10290     10293     10294
     10291     10290     10293     10295     10292     10290     10293     10294
     10292     10290     10293     10295     10293     10295     10297     10298
     10293     10295     10297     10299     10293     10295     10297     10300
     10294     10293     10295     10296     10294     10293     10295     10297
     10295     10297     10300     10301     10295     10297     10300     10302
     10296     10295     10297     10298     10296     10295     10297     10299
     10296     10295     10297     10300     10297     10300     10302     10303
     10297     10300     10302     10304     10298     10297     10300     10301
     10298     10297     10300     10302     10299     10297     10300     10301
     10299     10297     10300     10302     10300     10302     10304     10305
     10300     10302     10304     10306     10300     10302     10304     10307
     10301     10300     10302     10303     10301     10300     10302     10304
     10302     10304     10307     10308     10302     10304     10307     10309
     10302     10304     10307     10310     10303     10302     10304     10305
     10303     10302     10304     10306     10303     10302     10304     10307
     10304     10307     10310     10311     10304     10307     10310     10312
     10304     10307     10310     10313     10305     10304     10307     10308
     10305     10304     10307     10309     10305     10304     10307     10310
     10306     10304     10307     10308     10306     10304     10307     10309
     10306     10304     10307     10310     10307     10310     10313     10314
     10307     10310     10313     10315     10307     10310     10313     10316
     10308     10307     10310     10311     10308     10307     10310     10312
     10308     10307     10310     10313     10309     10307     10310     10311
     10309     10307     10310     10312     10309     10307     10310     10313
     10310     10313     10316     10317     10310     10313     10316     10318
     10310     10313     10316     10319     10311     10310     10313     10314
     10311     10310     10313     10315     10311     10310     10313     10316
     10312     10310     10313     10314     10312     10310     10313     10315
     10312     10310     10313     10316     10314     10313     10316     10317
     10314     10313     10316     10318     10314     10313     10316     10319
     10315     10313     10316     10317     10315     10313     10316     10318
     10315     10313     10316     10319     10320     10323     10326     10327
     10320     10323     10326     10328     10320     10323     10326     10329
     10321     10320     10323     10324     10321     10320     10323     10325
     10321     10320     10323     10326     10322     10320     10323     10324
     10322     10320     10323     10325     10322     10320     10323     10326
     10323     10326     10329     10330     10323     10326     10329     10331
     10323     10326     10329     10332     10324     10323     10326     10327
     10324     10323     10326     10328     10324     10323     10326     10329
     10325     10323     10326     10327     10325     10323     10326     10328
     10325     10323     10326     10329     10326     10329     10332     10333
     10326     10329     10332     10334     10326     10329     10332     10335
     10327     10326     10329     10330     10327     10326     10329     10331
     10327     10326     10329     10332     10328     10326     10329     10330
     10328     10326     10329     10331     10328     10326     10329     10332
     10329     10332     10335     10336     10329     10332     10335     10337
     10329     10332     10335     10338     10330     10329     10332     10333
     10330     10329     10332     10334     10330     10329     10332     10335
     10331     10329     10332     10333     10331     10329     10332     10334
     10331     10329     10332     10335     10332     10335     10338     10339
     10332     10335     10338     10340     10332     10335     10338     10341
     10333     10332     10335     10336     10333     10332     10335     10337
     10333     10332     10335     10338     10334     10332     10335     10336
     10334     10332     10335     10337     10334     10332     10335     10338
     10335     10338     10341     10342     10335     10338     10341     10343
     10335     10338     10341     10344     10336     10335     10338     10339
     10336     10335     10338     10340     10336     10335     10338     10341
     10337     10335     10338     10339     10337     10335     10338     10340
     10337     10335     10338     10341     10338     10341     10344     10345
     10338     10341     10344     10346     10338     10341     10344     10347
     10339     10338     10341     10342     10339     10338     10341     10343
     10339     10338     10341     10344     10340     10338     10341     10342
     10340     10338     10341     10343     10340     10338     10341     10344
     10341     10344     10347     10348     10341     10344     10347     10349
     10341     10344     10347     10350     10342     10341     10344     10345
     10342     10341     10344     10346     10342     10341     10344     10347
     10343     10341     10344     10345     10343     10341     10344     10346
     10343     10341     10344     10347     10344     10347     10350     10351
     10344     10347     10350     10352     10344     10347     10350     10353
     10345     10344     10347     10348     10345     10344     10347     10349
     10345     10344     10347     10350     10346     10344     10347     10348
     10346     10344     10347     10349     10346     10344     10347     10350
     10347     10350     10353     10354     10347     10350     10353     10355
     10347     10350     10353     10356     10348     10347     10350     10351
     10348     10347     10350     10352     10348     10347     10350     10353
     10349     10347     10350     10351     10349     10347     10350     10352
     10349     10347     10350     10353     10350     10353     10356     10357
     10350     10353     10356     10358     10350     10353     10356     10359
     10351     10350     10353     10354     10351     10350     10353     10355
     10351     10350     10353     10356     10352     10350     10353     10354
     10352     10350     10353     10355     10352     10350     10353     10356
     10353     10356     10359     10360     10353     10356     10359     10361
     10353     10356     10359     10362     10354     10353     10356     10357
     10354     10353     10356     10358     10354     10353     10356     10359
     10355     10353     10356     10357     10355     10353     10356     10358
     10355     10353     10356     10359     10356     10359     10362     10363
     10356     10359     10362     10364     10356     10359     10362     10365
     10357     10356     10359     10360     10357     10356     10359     10361
     10357     10356     10359     10362     10358     10356     10359     10360
     10358     10356     10359     10361     10358     10356     10359     10362
     10359     10362     10365     10366     10359     10362     10365     10367
     10359     10362     10365     10368     10360     10359     10362     10363
     10360     10359     10362     10364     10360     10359     10362     10365
     10361     10359     10362     10363     10361     10359     10362     10364
     10361     10359     10362     10365     10363     10362     10365     10366
     10363     10362     10365     10367     10363     10362     10365     10368
     10364     10362     10365     10366     10364     10362     10365     10367
     10364     10362     10365     10368     10369     10373     10376     10377
     10369     10373     10376     10378     10369     10373     10376     10382
     10370     10369     10373     10374     10370     10369     10373     10375
     10370     10369     10373     10376     10371     10369     10373     10374
     10371     10369     10373     10375     10371     10369     10373     10376
     10372     10369     10373     10374     10372     10369     10373     10375
     10372     10369     10373     10376     10373     10376     10382     10379
     10374     10373     10376     10377     10374     10373     10376     10378
     10374     10373     10376     10382     10375     10373     10376     10377
     10375     10373     10376     10378     10375     10373     10376     10382
     10376     10382     10379     10380     10376     10382     10379     10381
     10376     10382     10379     10383     10377     10376     10382     10379
     10378     10376     10382     10379     10379     10383     10384     10385
     10379     10383     10384     10386     10379     10383     10384     10387
     10380     10379     10383     10384     10381     10379     10383     10384
     10382     10379     10383     10384     10383     10384     10387     10388
     10383     10384     10387     10389     10383     10384     10387     10395
     10384     10387     10389     10390     10384     10387     10395     10396
     10384     10387     10395     10397     10384     10387     10395     10398
     10385     10384     10387     10388     10385     10384     10387     10389
     10385     10384     10387     10395     10386     10384     10387     10388
     10386     10384     10387     10389     10386     10384     10387     10395
     10387     10389     10390     10391     10387     10389     10390     10392
     10387     10395     10398     10399     10388     10387     10389     10390
     10388     10387     10395     10396     10388     10387     10395     10397
     10388     10387     10395     10398     10389     10387     10395     10396
     10389     10387     10395     10397     10389     10387     10395     10398
     10389     10390     10392     10393     10389     10390     10392     10394
     10389     10390     10392     10404     10390     10389     10387     10395
     10390     10392     10404     10405     10390     10392     10404     10406
     10390     10392     10404     10407     10391     10390     10392     10393
     10391     10390     10392     10394     10391     10390     10392     10404
     10392     10404     10407     10408     10392     10404     10407     10409
     10392     10404     10407     10410     10393     10392     10404     10405
     10393     10392     10404     10406     10393     10392     10404     10407
     10394     10392     10404     10405     10394     10392     10404     10406
     10394     10392     10404     10407     10395     10398     10399     10400
     10395     10398     10399     10401     10396     10395     10398     10399
     10397     10395     10398     10399     10398     10399     10401     10402
     10398     10399     10401     10403     10398     10399     10401     10451
     10399     10401     10451     10452     10399     10401     10451     10453
     10399     10401     10451     10454     10400     10399     10401     10402
     10400     10399     10401     10403     10400     10399     10401     10451
     10401     10451     10454     10455     10401     10451     10454     10456
     10401     10451     10454     10457     10402     10401     10451     10452
     10402     10401     10451     10453     10402     10401     10451     10454
     10403     10401     10451     10452     10403     10401     10451     10453
     10403     10401     10451     10454     10404     10407     10410     10411
     10404     10407     10410     10412     10404     10407     10410     10413
     10405     10404     10407     10408     10405     10404     10407     10409
     10405     10404     10407     10410     10406     10404     10407     10408
     10406     10404     10407     10409     10406     10404     10407     10410
     10407     10410     10413     10414     10407     10410     10413     10415
     10407     10410     10413     10416     10408     10407     10410     10411
     10408     10407     10410     10412     10408     10407     10410     10413
     10409     10407     10410     10411     10409     10407     10410     10412
     10409     10407     10410     10413     10410     10413     10416     10417
     10410     10413     10416     10418     10410     10413     10416     10419
     10411     10410     10413     10414     10411     10410     10413     10415
     10411     10410     10413     10416     10412     10410     10413     10414
     10412     10410     10413     10415     10412     10410     10413     10416
     10413     10416     10419     10420     10413     10416     10419     10421
     10413     10416     10419     10422     10414     10413     10416     10417
     10414     10413     10416     10418     10414     10413     10416     10419
     10415     10413     10416     10417     10415     10413     10416     10418
     10415     10413     10416     10419     10416     10419     10422     10423
     10416     10419     10422     10424     10417     10416     10419     10420
     10417     10416     10419     10421     10417     10416     10419     10422
     10418     10416     10419     10420     10418     10416     10419     10421
     10418     10416     10419     10422     10419     10422     10424     10425
     10419     10422     10424     10426     10420     10419     10422     10423
     10420     10419     10422     10424     10421     10419     10422     10423
     10421     10419     10422     10424     10422     10424     10426     10427
     10422     10424     10426     10428     10422     10424     10426     10429
     10423     10422     10424     10425     10423     10422     10424     10426
     10424     10426     10429     10430     10424     10426     10429     10431
     10424     10426     10429     10432     10425     10424     10426     10427
     10425     10424     10426     10428     10425     10424     10426     10429
     10426     10429     10432     10433     10426     10429     10432     10434
     10426     10429     10432     10435     10427     10426     10429     10430
     10427     10426     10429     10431     10427     10426     10429     10432
     10428     10426     10429     10430     10428     10426     10429     10431
     10428     10426     10429     10432     10429     10432     10435     10436
     10429     10432     10435     10437     10429     10432     10435     10438
     10430     10429     10432     10433     10430     10429     10432     10434
     10430     10429     10432     10435     10431     10429     10432     10433
     10431     10429     10432     10434     10431     10429     10432     10435
     10432     10435     10438     10439     10432     10435     10438     10440
     10432     10435     10438     10441     10433     10432     10435     10436
     10433     10432     10435     10437     10433     10432     10435     10438
     10434     10432     10435     10436     10434     10432     10435     10437
     10434     10432     10435     10438     10435     10438     10441     10442
     10435     10438     10441     10443     10435     10438     10441     10444
     10436     10435     10438     10439     10436     10435     10438     10440
     10436     10435     10438     10441     10437     10435     10438     10439
     10437     10435     10438     10440     10437     10435     10438     10441
     10438     10441     10444     10445     10438     10441     10444     10446
     10438     10441     10444     10447     10439     10438     10441     10442
     10439     10438     10441     10443     10439     10438     10441     10444
     10440     10438     10441     10442     10440     10438     10441     10443
     10440     10438     10441     10444     10441     10444     10447     10448
     10441     10444     10447     10449     10441     10444     10447     10450
     10442     10441     10444     10445     10442     10441     10444     10446
     10442     10441     10444     10447     10443     10441     10444     10445
     10443     10441     10444     10446     10443     10441     10444     10447
     10445     10444     10447     10448     10445     10444     10447     10449
     10445     10444     10447     10450     10446     10444     10447     10448
     10446     10444     10447     10449     10446     10444     10447     10450
     10451     10454     10457     10458     10451     10454     10457     10459
     10451     10454     10457     10460     10452     10451     10454     10455
     10452     10451     10454     10456     10452     10451     10454     10457
     10453     10451     10454     10455     10453     10451     10454     10456
     10453     10451     10454     10457     10454     10457     10460     10461
     10454     10457     10460     10462     10454     10457     10460     10463
     10455     10454     10457     10458     10455     10454     10457     10459
     10455     10454     10457     10460     10456     10454     10457     10458
     10456     10454     10457     10459     10456     10454     10457     10460
     10457     10460     10463     10464     10457     10460     10463     10465
     10457     10460     10463     10466     10458     10457     10460     10461
     10458     10457     10460     10462     10458     10457     10460     10463
     10459     10457     10460     10461     10459     10457     10460     10462
     10459     10457     10460     10463     10460     10463     10466     10467
     10460     10463     10466     10468     10460     10463     10466     10469
     10461     10460     10463     10464     10461     10460     10463     10465
     10461     10460     10463     10466     10462     10460     10463     10464
     10462     10460     10463     10465     10462     10460     10463     10466
     10463     10466     10469     10470     10463     10466     10469     10471
     10463     10466     10469     10472     10464     10463     10466     10467
     10464     10463     10466     10468     10464     10463     10466     10469
     10465     10463     10466     10467     10465     10463     10466     10468
     10465     10463     10466     10469     10466     10469     10472     10473
     10466     10469     10472     10474     10466     10469     10472     10475
     10467     10466     10469     10470     10467     10466     10469     10471
     10467     10466     10469     10472     10468     10466     10469     10470
     10468     10466     10469     10471     10468     10466     10469     10472
     10469     10472     10475     10476     10469     10472     10475     10477
     10469     10472     10475     10478     10470     10469     10472     10473
     10470     10469     10472     10474     10470     10469     10472     10475
     10471     10469     10472     10473     10471     10469     10472     10474
     10471     10469     10472     10475     10472     10475     10478     10479
     10472     10475     10478     10480     10472     10475     10478     10481
     10473     10472     10475     10476     10473     10472     10475     10477
     10473     10472     10475     10478     10474     10472     10475     10476
     10474     10472     10475     10477     10474     10472     10475     10478
     10475     10478     10481     10482     10475     10478     10481     10483
     10475     10478     10481     10484     10476     10475     10478     10479
     10476     10475     10478     10480     10476     10475     10478     10481
     10477     10475     10478     10479     10477     10475     10478     10480
     10477     10475     10478     10481     10478     10481     10484     10485
     10478     10481     10484     10486     10478     10481     10484     10487
     10479     10478     10481     10482     10479     10478     10481     10483
     10479     10478     10481     10484     10480     10478     10481     10482
     10480     10478     10481     10483     10480     10478     10481     10484
     10481     10484     10487     10488     10481     10484     10487     10489
     10481     10484     10487     10490     10482     10481     10484     10485
     10482     10481     10484     10486     10482     10481     10484     10487
     10483     10481     10484     10485     10483     10481     10484     10486
     10483     10481     10484     10487     10484     10487     10490     10491
     10484     10487     10490     10492     10484     10487     10490     10493
     10485     10484     10487     10488     10485     10484     10487     10489
     10485     10484     10487     10490     10486     10484     10487     10488
     10486     10484     10487     10489     10486     10484     10487     10490
     10487     10490     10493     10494     10487     10490     10493     10495
     10487     10490     10493     10496     10488     10487     10490     10491
     10488     10487     10490     10492     10488     10487     10490     10493
     10489     10487     10490     10491     10489     10487     10490     10492
     10489     10487     10490     10493     10490     10493     10496     10497
     10490     10493     10496     10498     10490     10493     10496     10499
     10491     10490     10493     10494     10491     10490     10493     10495
     10491     10490     10493     10496     10492     10490     10493     10494
     10492     10490     10493     10495     10492     10490     10493     10496
     10494     10493     10496     10497     10494     10493     10496     10498
     10494     10493     10496     10499     10495     10493     10496     10497
     10495     10493     10496     10498     10495     10493     10496     10499
     10500     10501     10516     10517     10500     10501     10516     10518
     10500     10501     10516     10522     10501     10500     10504     10505
     10501     10500     10504     10506     10501     10500     10504     10507
     10501     10500     10508     10509     10501     10500     10508     10510
     10501     10500     10508     10511     10501     10500     10512     10513
     10501     10500     10512     10514     10501     10500     10512     10515
     10501     10516     10522     10519     10502     10501     10500     10504
     10502     10501     10500     10508     10502     10501     10500     10512
     10502     10501     10516     10517     10502     10501     10516     10518
     10502     10501     10516     10522     10503     10501     10500     10504
     10503     10501     10500     10508     10503     10501     10500     10512
     10503     10501     10516     10517     10503     10501     10516     10518
     10503     10501     10516     10522     10504     10500     10501     10516
     10504     10500     10508     10509     10504     10500     10508     10510
     10504     10500     10508     10511     10504     10500     10512     10513
     10504     10500     10512     10514     10504     10500     10512     10515
     10505     10504     10500     10508     10505     10504     10500     10512
     10506     10504     10500     10508     10506     10504     10500     10512
     10507     10504     10500     10508     10507     10504     10500     10512
     10508     10500     10501     10516     10508     10500     10512     10513
     10508     10500     10512     10514     10508     10500     10512     10515
     10509     10508     10500     10512     10510     10508     10500     10512
     10511     10508     10500     10512     10512     10500     10501     10516
     10516     10522     10519     10520     10516     10522     10519     10521
     10516     10522     10519     10523     10517     10516     10522     10519
     10518     10516     10522     10519     10519     10523     10524     10525
     10519     10523     10524     10526     10519     10523     10524     10527
     10520     10519     10523     10524     10521     10519     10523     10524
     10522     10519     10523     10524     10523     10524     10527     10528
     10523     10524     10527     10529     10523     10524     10527     10535
     10524     10527     10529     10530     10524     10527     10535     10536
     10524     10527     10535     10537     10524     10527     10535     10538
     10525     10524     10527     10528     10525     10524     10527     10529
     10525     10524     10527     10535     10526     10524     10527     10528
     10526     10524     10527     10529     10526     10524     10527     10535
     10527     10529     10530     10531     10527     10529     10530     10532
     10527     10535     10538     10539     10528     10527     10529     10530
     10528     10527     10535     10536     10528     10527     10535     10537
     10528     10527     10535     10538     10529     10527     10535     10536
     10529     10527     10535     10537     10529     10527     10535     10538
     10529     10530     10532     10533     10529     10530     10532     10534
     10529     10530     10532     10544     10530     10529     10527     10535
     10530     10532     10544     10545     10530     10532     10544     10546
     10530     10532     10544     10547     10531     10530     10532     10533
     10531     10530     10532     10534     10531     10530     10532     10544
     10532     10544     10547     10548     10532     10544     10547     10549
     10532     10544     10547     10550     10533     10532     10544     10545
     10533     10532     10544     10546     10533     10532     10544     10547
     10534     10532     10544     10545     10534     10532     10544     10546
     10534     10532     10544     10547     10535     10538     10539     10540
     10535     10538     10539     10541     10536     10535     10538     10539
     10537     10535     10538     10539     10538     10539     10541     10542
     10538     10539     10541     10543     10538     10539     10541     10591
     10539     10541     10591     10592     10539     10541     10591     10593
     10539     10541     10591     10594     10540     10539     10541     10542
     10540     10539     10541     10543     10540     10539     10541     10591
     10541     10591     10594     10595     10541     10591     10594     10596
     10541     10591     10594     10597     10542     10541     10591     10592
     10542     10541     10591     10593     10542     10541     10591     10594
     10543     10541     10591     10592     10543     10541     10591     10593
     10543     10541     10591     10594     10544     10547     10550     10551
     10544     10547     10550     10552     10545     10544     10547     10548
     10545     10544     10547     10549     10545     10544     10547     10550
     10546     10544     10547     10548     10546     10544     10547     10549
     10546     10544     10547     10550     10547     10550     10552     10553
     10547     10550     10552     10554     10548     10547     10550     10551
     10548     10547     10550     10552     10549     10547     10550     10551
     10549     10547     10550     10552     10550     10552     10554     10555
     10550     10552     10554     10556     10550     10552     10554     10557
     10551     10550     10552     10553     10551     10550     10552     10554
     10552     10554     10557     10558     10552     10554     10557     10559
     10553     10552     10554     10555     10553     10552     10554     10556
     10553     10552     10554     10557     10554     10557     10559     10560
     10554     10557     10559     10561     10555     10554     10557     10558
     10555     10554     10557     10559     10556     10554     10557     10558
     10556     10554     10557     10559     10557     10559     10561     10562
     10557     10559     10561     10563     10557     10559     10561     10564
     10558     10557     10559     10560     10558     10557     10559     10561
     10559     10561     10564     10565     10559     10561     10564     10566
     10560     10559     10561     10562     10560     10559     10561     10563
     10560     10559     10561     10564     10561     10564     10566     10567
     10561     10564     10566     10568     10562     10561     10564     10565
     10562     10561     10564     10566     10563     10561     10564     10565
     10563     10561     10564     10566     10564     10566     10568     10569
     10564     10566     10568     10570     10564     10566     10568     10571
     10565     10564     10566     10567     10565     10564     10566     10568
     10566     10568     10571     10572     10566     10568     10571     10573
     10567     10566     10568     10569     10567     10566     10568     10570
     10567     10566     10568     10571     10568     10571     10573     10574
     10568     10571     10573     10575     10569     10568     10571     10572
     10569     10568     10571     10573     10570     10568     10571     10572
     10570     10568     10571     10573     10571     10573     10575     10576
     10571     10573     10575     10577     10571     10573     10575     10578
     10572     10571     10573     10574     10572     10571     10573     10575
     10573     10575     10578     10579     10573     10575     10578     10580
     10573     10575     10578     10581     10574     10573     10575     10576
     10574     10573     10575     10577     10574     10573     10575     10578
     10575     10578     10581     10582     10575     10578     10581     10583
     10575     10578     10581     10584     10576     10575     10578     10579
     10576     10575     10578     10580     10576     10575     10578     10581
     10577     10575     10578     10579     10577     10575     10578     10580
     10577     10575     10578     10581     10578     10581     10584     10585
     10578     10581     10584     10586     10578     10581     10584     10587
     10579     10578     10581     10582     10579     10578     10581     10583
     10579     10578     10581     10584     10580     10578     10581     10582
     10580     10578     10581     10583     10580     10578     10581     10584
     10581     10584     10587     10588     10581     10584     10587     10589
     10581     10584     10587     10590     10582     10581     10584     10585
     10582     10581     10584     10586     10582     10581     10584     10587
     10583     10581     10584     10585     10583     10581     10584     10586
     10583     10581     10584     10587     10585     10584     10587     10588
     10585     10584     10587     10589     10585     10584     10587     10590
     10586     10584     10587     10588     10586     10584     10587     10589
     10586     10584     10587     10590     10591     10594     10597     10598
     10591     10594     10597     10599     10591     10594     10597     10600
     10592     10591     10594     10595     10592     10591     10594     10596
     10592     10591     10594     10597     10593     10591     10594     10595
     10593     10591     10594     10596     10593     10591     10594     10597
     10594     10597     10600     10601     10594     10597     10600     10602
     10594     10597     10600     10603     10595     10594     10597     10598
     10595     10594     10597     10599     10595     10594     10597     10600
     10596     10594     10597     10598     10596     10594     10597     10599
     10596     10594     10597     10600     10597     10600     10603     10604
     10597     10600     10603     10605     10597     10600     10603     10606
     10598     10597     10600     10601     10598     10597     10600     10602
     10598     10597     10600     10603     10599     10597     10600     10601
     10599     10597     10600     10602     10599     10597     10600     10603
     10600     10603     10606     10607     10600     10603     10606     10608
     10600     10603     10606     10609     10601     10600     10603     10604
     10601     10600     10603     10605     10601     10600     10603     10606
     10602     10600     10603     10604     10602     10600     10603     10605
     10602     10600     10603     10606     10603     10606     10609     10610
     10603     10606     10609     10611     10603     10606     10609     10612
     10604     10603     10606     10607     10604     10603     10606     10608
     10604     10603     10606     10609     10605     10603     10606     10607
     10605     10603     10606     10608     10605     10603     10606     10609
     10606     10609     10612     10613     10606     10609     10612     10614
     10606     10609     10612     10615     10607     10606     10609     10610
     10607     10606     10609     10611     10607     10606     10609     10612
     10608     10606     10609     10610     10608     10606     10609     10611
     10608     10606     10609     10612     10609     10612     10615     10616
     10609     10612     10615     10617     10609     10612     10615     10618
     10610     10609     10612     10613     10610     10609     10612     10614
     10610     10609     10612     10615     10611     10609     10612     10613
     10611     10609     10612     10614     10611     10609     10612     10615
     10612     10615     10618     10619     10612     10615     10618     10620
     10612     10615     10618     10621     10613     10612     10615     10616
     10613     10612     10615     10617     10613     10612     10615     10618
     10614     10612     10615     10616     10614     10612     10615     10617
     10614     10612     10615     10618     10615     10618     10621     10622
     10615     10618     10621     10623     10615     10618     10621     10624
     10616     10615     10618     10619     10616     10615     10618     10620
     10616     10615     10618     10621     10617     10615     10618     10619
     10617     10615     10618     10620     10617     10615     10618     10621
     10618     10621     10624     10625     10618     10621     10624     10626
     10618     10621     10624     10627     10619     10618     10621     10622
     10619     10618     10621     10623     10619     10618     10621     10624
     10620     10618     10621     10622     10620     10618     10621     10623
     10620     10618     10621     10624     10621     10624     10627     10628
     10621     10624     10627     10629     10621     10624     10627     10630
     10622     10621     10624     10625     10622     10621     10624     10626
     10622     10621     10624     10627     10623     10621     10624     10625
     10623     10621     10624     10626     10623     10621     10624     10627
     10624     10627     10630     10631     10624     10627     10630     10632
     10624     10627     10630     10633     10625     10624     10627     10628
     10625     10624     10627     10629     10625     10624     10627     10630
     10626     10624     10627     10628     10626     10624     10627     10629
     10626     10624     10627     10630     10627     10630     10633     10634
     10627     10630     10633     10635     10627     10630     10633     10636
     10628     10627     10630     10631     10628     10627     10630     10632
     10628     10627     10630     10633     10629     10627     10630     10631
     10629     10627     10630     10632     10629     10627     10630     10633
     10630     10633     10636     10637     10630     10633     10636     10638
     10630     10633     10636     10639     10631     10630     10633     10634
     10631     10630     10633     10635     10631     10630     10633     10636
     10632     10630     10633     10634     10632     10630     10633     10635
     10632     10630     10633     10636     10634     10633     10636     10637
     10634     10633     10636     10638     10634     10633     10636     10639
     10635     10633     10636     10637     10635     10633     10636     10638
     10635     10633     10636     10639     10640     10644     10647     10648
     10640     10644     10647     10678     10640     10686     10683     10678
     10640     10686     10683     10684     10640     10686     10683     10685
     10641     10640     10642     10643     10641     10640     10644     10645
     10641     10640     10644     10646     10641     10640     10644     10647
     10641     10640     10686     10683     10641     10640     10686     10687
     10641     10640     10686     10688     10642     10640     10644     10645
     10642     10640     10644     10646     10642     10640     10644     10647
     10642     10640     10686     10683     10642     10640     10686     10687
     10642     10640     10686     10688     10643     10642     10640     10644
     10643     10642     10640     10686     10644     10640     10686     10683
     10644     10640     10686     10687     10644     10640     10686     10688
     10644     10647     10648     10649     10644     10647     10648     10650
     10644     10647     10678     10676     10644     10647     10678     10679
     10644     10647     10678     10683     10645     10644     10640     10686
     10645     10644     10647     10648     10645     10644     10647     10678
     10646     10644     10640     10686     10646     10644     10647     10648
     10646     10644     10647     10678     10647     10644     10640     10686
     10647     10648     10650     10651     10647     10648     10650     10652
     10647     10648     10650     10653     10647     10678     10676     10653
     10647     10678     10676     10673     10647     10678     10676     10677
     10647     10678     10679     10680     10647     10678     10679     10681
     10647     10678     10679     10682     10647     10678     10683     10684
     10647     10678     10683     10685     10647     10678     10683     10686
     10648     10647     10678     10676     10648     10647     10678     10679
     10648     10647     10678     10683     10648     10650     10653     10654
     10648     10650     10653     10655     10648     10650     10653     10676
     10649     10648     10647     10678     10649     10648     10650     10651
     10649     10648     10650     10652     10649     10648     10650     10653
     10650     10648     10647     10678     10650     10653     10655     10656
     10650     10653     10655     10657     10650     10653     10655     10665
     10650     10653     10676     10673     10650     10653     10676     10677
     10650     10653     10676     10678     10651     10650     10653     10654
     10651     10650     10653     10655     10651     10650     10653     10676
     10652     10650     10653     10654     10652     10650     10653     10655
     10652     10650     10653     10676     10653     10655     10657     10658
     10653     10655     10657     10659     10653     10655     10657     10660
     10653     10655     10665     10663     10653     10655     10665     10666
     10653     10655     10665     10670     10653     10676     10673     10670
     10653     10676     10673     10674     10653     10676     10673     10675
     10653     10676     10678     10679     10653     10676     10678     10683
     10654     10653     10655     10656     10654     10653     10655     10657
     10654     10653     10655     10665     10654     10653     10676     10673
     10654     10653     10676     10677     10654     10653     10676     10678
     10655     10653     10676     10673     10655     10653     10676     10677
     10655     10653     10676     10678     10655     10657     10660     10661
     10655     10657     10660     10662     10655     10657     10660     10663
     10655     10665     10663     10660     10655     10665     10663     10664
     10655     10665     10663     10689     10655     10665     10666     10667
     10655     10665     10666     10668     10655     10665     10666     10669
     10655     10665     10670     10671     10655     10665     10670     10672
     10655     10665     10670     10673     10656     10655     10653     10676
     10656     10655     10657     10658     10656     10655     10657     10659
     10656     10655     10657     10660     10656     10655     10665     10663
     10656     10655     10665     10666     10656     10655     10665     10670
     10657     10655     10653     10676     10657     10655     10665     10663
     10657     10655     10665     10666     10657     10655     10665     10670
     10657     10660     10663     10664     10657     10660     10663     10665
     10657     10660     10663     10689     10658     10657     10655     10665
     10658     10657     10660     10661     10658     10657     10660     10662
     10658     10657     10660     10663     10659     10657     10655     10665
     10659     10657     10660     10661     10659     10657     10660     10662
     10659     10657     10660     10663     10660     10657     10655     10665
     10660     10663     10665     10666     10660     10663     10665     10670
     10660     10663     10689     10690     10660     10663     10689     10691
     10660     10663     10689     10695     10661     10660     10663     10664
     10661     10660     10663     10665     10661     10660     10663     10689
     10662     10660     10663     10664     10662     10660     10663     10665
     10662     10660     10663     10689     10663     10665     10666     10667
     10663     10665     10666     10668     10663     10665     10666     10669
     10663     10665     10670     10671     10663     10665     10670     10672
     10663     10665     10670     10673     10663     10689     10691     10692
     10663     10689     10691     10693     10663     10689     10691     10694
     10663     10689     10695     10696     10663     10689     10695     10697
     10663     10689     10695     10698     10664     10663     10665     10666
     10664     10663     10665     10670     10664     10663     10689     10690
     10664     10663     10689     10691     10664     10663     10689     10695
     10665     10655     10653     10676     10665     10663     10689     10690
     10665     10663     10689     10691     10665     10663     10689     10695
     10665     10670     10673     10674     10665     10670     10673     10675
     10665     10670     10673     10676     10666     10665     10663     10689
     10666     10665     10670     10671     10666     10665     10670     10672
     10666     10665     10670     10673     10667     10666     10665     10670
     10668     10666     10665     10670     10669     10666     10665     10670
     10670     10665     10663     10689     10670     10673     10676     10677
     10670     10673     10676     10678     10671     10670     10673     10674
     10671     10670     10673     10675     10671     10670     10673     10676
     10672     10670     10673     10674     10672     10670     10673     10675
     10672     10670     10673     10676     10673     10676     10678     10679
     10673     10676     10678     10683     10674     10673     10676     10677
     10674     10673     10676     10678     10675     10673     10676     10677
     10675     10673     10676     10678     10676     10678     10679     10680
     10676     10678     10679     10681     10676     10678     10679     10682
     10676     10678     10683     10684     10676     10678     10683     10685
     10676     10678     10683     10686     10677     10676     10678     10679
     10677     10676     10678     10683     10678     10683     10686     10687
     10678     10683     10686     10688     10679     10678     10683     10684
     10679     10678     10683     10685     10679     10678     10683     10686
     10680     10679     10678     10683     10681     10679     10678     10683
     10682     10679     10678     10683     10684     10683     10686     10687
     10684     10683     10686     10688     10685     10683     10686     10687
     10685     10683     10686     10688     10689     10695     10698     10699
     10689     10695     10698     10700     10689     10695     10698     10701
     10690     10689     10691     10692     10690     10689     10691     10693
     10690     10689     10691     10694     10690     10689     10695     10696
     10690     10689     10695     10697     10690     10689     10695     10698
     10691     10689     10695     10696     10691     10689     10695     10697
     10691     10689     10695     10698     10692     10691     10689     10695
     10693     10691     10689     10695     10694     10691     10689     10695
     10695     10698     10701     10702     10695     10698     10701     10703
     10695     10698     10701     10704     10696     10695     10698     10699
     10696     10695     10698     10700     10696     10695     10698     10701
     10697     10695     10698     10699     10697     10695     10698     10700
     10697     10695     10698     10701     10698     10701     10704     10705
     10698     10701     10704     10706     10698     10701     10704     10710
     10699     10698     10701     10702     10699     10698     10701     10703
     10699     10698     10701     10704     10700     10698     10701     10702
     10700     10698     10701     10703     10700     10698     10701     10704
     10701     10704     10706     10707     10701     10704     10706     10708
     10701     10704     10706     10709     10701     10704     10710     10711
     10701     10704     10710     10712     10701     10704     10710     10713
     10702     10701     10704     10705     10702     10701     10704     10706
     10702     10701     10704     10710     10703     10701     10704     10705
     10703     10701     10704     10706     10703     10701     10704     10710
     10705     10704     10706     10707     10705     10704     10706     10708
     10705     10704     10706     10709     10705     10704     10710     10711
     10705     10704     10710     10712     10705     10704     10710     10713
     10706     10704     10710     10711     10706     10704     10710     10712
     10706     10704     10710     10713     10707     10706     10704     10710
     10708     10706     10704     10710     10709     10706     10704     10710
     10714     10715     10730     10731     10714     10715     10730     10732
     10714     10715     10730     10736     10715     10714     10718     10719
     10715     10714     10718     10720     10715     10714     10718     10721
     10715     10714     10722     10723     10715     10714     10722     10724
     10715     10714     10722     10725     10715     10714     10726     10727
     10715     10714     10726     10728     10715     10714     10726     10729
     10715     10730     10736     10733     10716     10715     10714     10718
     10716     10715     10714     10722     10716     10715     10714     10726
     10716     10715     10730     10731     10716     10715     10730     10732
     10716     10715     10730     10736     10717     10715     10714     10718
     10717     10715     10714     10722     10717     10715     10714     10726
     10717     10715     10730     10731     10717     10715     10730     10732
     10717     10715     10730     10736     10718     10714     10715     10730
     10718     10714     10722     10723     10718     10714     10722     10724
     10718     10714     10722     10725     10718     10714     10726     10727
     10718     10714     10726     10728     10718     10714     10726     10729
     10719     10718     10714     10722     10719     10718     10714     10726
     10720     10718     10714     10722     10720     10718     10714     10726
     10721     10718     10714     10722     10721     10718     10714     10726
     10722     10714     10715     10730     10722     10714     10726     10727
     10722     10714     10726     10728     10722     10714     10726     10729
     10723     10722     10714     10726     10724     10722     10714     10726
     10725     10722     10714     10726     10726     10714     10715     10730
     10730     10736     10733     10734     10730     10736     10733     10735
     10730     10736     10733     10737     10731     10730     10736     10733
     10732     10730     10736     10733     10733     10737     10738     10739
     10733     10737     10738     10740     10733     10737     10738     10741
     10734     10733     10737     10738     10735     10733     10737     10738
     10736     10733     10737     10738     10737     10738     10741     10742
     10737     10738     10741     10743     10737     10738     10741     10749
     10738     10741     10743     10744     10738     10741     10749     10750
     10738     10741     10749     10751     10738     10741     10749     10752
     10739     10738     10741     10742     10739     10738     10741     10743
     10739     10738     10741     10749     10740     10738     10741     10742
     10740     10738     10741     10743     10740     10738     10741     10749
     10741     10743     10744     10745     10741     10743     10744     10746
     10741     10749     10752     10753     10742     10741     10743     10744
     10742     10741     10749     10750     10742     10741     10749     10751
     10742     10741     10749     10752     10743     10741     10749     10750
     10743     10741     10749     10751     10743     10741     10749     10752
     10743     10744     10746     10747     10743     10744     10746     10748
     10743     10744     10746     10758     10744     10743     10741     10749
     10744     10746     10758     10759     10744     10746     10758     10760
     10744     10746     10758     10761     10745     10744     10746     10747
     10745     10744     10746     10748     10745     10744     10746     10758
     10746     10758     10761     10762     10746     10758     10761     10763
     10746     10758     10761     10764     10747     10746     10758     10759
     10747     10746     10758     10760     10747     10746     10758     10761
     10748     10746     10758     10759     10748     10746     10758     10760
     10748     10746     10758     10761     10749     10752     10753     10754
     10749     10752     10753     10755     10750     10749     10752     10753
     10751     10749     10752     10753     10752     10753     10755     10756
     10752     10753     10755     10757     10752     10753     10755     10805
     10753     10755     10805     10806     10753     10755     10805     10807
     10753     10755     10805     10808     10754     10753     10755     10756
     10754     10753     10755     10757     10754     10753     10755     10805
     10755     10805     10808     10809     10755     10805     10808     10810
     10755     10805     10808     10811     10756     10755     10805     10806
     10756     10755     10805     10807     10756     10755     10805     10808
     10757     10755     10805     10806     10757     10755     10805     10807
     10757     10755     10805     10808     10758     10761     10764     10765
     10758     10761     10764     10766     10759     10758     10761     10762
     10759     10758     10761     10763     10759     10758     10761     10764
     10760     10758     10761     10762     10760     10758     10761     10763
     10760     10758     10761     10764     10761     10764     10766     10767
     10761     10764     10766     10768     10762     10761     10764     10765
     10762     10761     10764     10766     10763     10761     10764     10765
     10763     10761     10764     10766     10764     10766     10768     10769
     10764     10766     10768     10770     10764     10766     10768     10771
     10765     10764     10766     10767     10765     10764     10766     10768
     10766     10768     10771     10772     10766     10768     10771     10773
     10767     10766     10768     10769     10767     10766     10768     10770
     10767     10766     10768     10771     10768     10771     10773     10774
     10768     10771     10773     10775     10769     10768     10771     10772
     10769     10768     10771     10773     10770     10768     10771     10772
     10770     10768     10771     10773     10771     10773     10775     10776
     10771     10773     10775     10777     10771     10773     10775     10778
     10772     10771     10773     10774     10772     10771     10773     10775
     10773     10775     10778     10779     10773     10775     10778     10780
     10774     10773     10775     10776     10774     10773     10775     10777
     10774     10773     10775     10778     10775     10778     10780     10781
     10775     10778     10780     10782     10776     10775     10778     10779
     10776     10775     10778     10780     10777     10775     10778     10779
     10777     10775     10778     10780     10778     10780     10782     10783
     10778     10780     10782     10784     10778     10780     10782     10785
     10779     10778     10780     10781     10779     10778     10780     10782
     10780     10782     10785     10786     10780     10782     10785     10787
     10781     10780     10782     10783     10781     10780     10782     10784
     10781     10780     10782     10785     10782     10785     10787     10788
     10782     10785     10787     10789     10783     10782     10785     10786
     10783     10782     10785     10787     10784     10782     10785     10786
     10784     10782     10785     10787     10785     10787     10789     10790
     10785     10787     10789     10791     10785     10787     10789     10792
     10786     10785     10787     10788     10786     10785     10787     10789
     10787     10789     10792     10793     10787     10789     10792     10794
     10787     10789     10792     10795     10788     10787     10789     10790
     10788     10787     10789     10791     10788     10787     10789     10792
     10789     10792     10795     10796     10789     10792     10795     10797
     10789     10792     10795     10798     10790     10789     10792     10793
     10790     10789     10792     10794     10790     10789     10792     10795
     10791     10789     10792     10793     10791     10789     10792     10794
     10791     10789     10792     10795     10792     10795     10798     10799
     10792     10795     10798     10800     10792     10795     10798     10801
     10793     10792     10795     10796     10793     10792     10795     10797
     10793     10792     10795     10798     10794     10792     10795     10796
     10794     10792     10795     10797     10794     10792     10795     10798
     10795     10798     10801     10802     10795     10798     10801     10803
     10795     10798     10801     10804     10796     10795     10798     10799
     10796     10795     10798     10800     10796     10795     10798     10801
     10797     10795     10798     10799     10797     10795     10798     10800
     10797     10795     10798     10801     10799     10798     10801     10802
     10799     10798     10801     10803     10799     10798     10801     10804
     10800     10798     10801     10802     10800     10798     10801     10803
     10800     10798     10801     10804     10805     10808     10811     10812
     10805     10808     10811     10813     10805     10808     10811     10814
     10806     10805     10808     10809     10806     10805     10808     10810
     10806     10805     10808     10811     10807     10805     10808     10809
     10807     10805     10808     10810     10807     10805     10808     10811
     10808     10811     10814     10815     10808     10811     10814     10816
     10808     10811     10814     10817     10809     10808     10811     10812
     10809     10808     10811     10813     10809     10808     10811     10814
     10810     10808     10811     10812     10810     10808     10811     10813
     10810     10808     10811     10814     10811     10814     10817     10818
     10811     10814     10817     10819     10811     10814     10817     10820
     10812     10811     10814     10815     10812     10811     10814     10816
     10812     10811     10814     10817     10813     10811     10814     10815
     10813     10811     10814     10816     10813     10811     10814     10817
     10814     10817     10820     10821     10814     10817     10820     10822
     10814     10817     10820     10823     10815     10814     10817     10818
     10815     10814     10817     10819     10815     10814     10817     10820
     10816     10814     10817     10818     10816     10814     10817     10819
     10816     10814     10817     10820     10817     10820     10823     10824
     10817     10820     10823     10825     10817     10820     10823     10826
     10818     10817     10820     10821     10818     10817     10820     10822
     10818     10817     10820     10823     10819     10817     10820     10821
     10819     10817     10820     10822     10819     10817     10820     10823
     10820     10823     10826     10827     10820     10823     10826     10828
     10820     10823     10826     10829     10821     10820     10823     10824
     10821     10820     10823     10825     10821     10820     10823     10826
     10822     10820     10823     10824     10822     10820     10823     10825
     10822     10820     10823     10826     10823     10826     10829     10830
     10823     10826     10829     10831     10823     10826     10829     10832
     10824     10823     10826     10827     10824     10823     10826     10828
     10824     10823     10826     10829     10825     10823     10826     10827
     10825     10823     10826     10828     10825     10823     10826     10829
     10826     10829     10832     10833     10826     10829     10832     10834
     10826     10829     10832     10835     10827     10826     10829     10830
     10827     10826     10829     10831     10827     10826     10829     10832
     10828     10826     10829     10830     10828     10826     10829     10831
     10828     10826     10829     10832     10829     10832     10835     10836
     10829     10832     10835     10837     10829     10832     10835     10838
     10830     10829     10832     10833     10830     10829     10832     10834
     10830     10829     10832     10835     10831     10829     10832     10833
     10831     10829     10832     10834     10831     10829     10832     10835
     10832     10835     10838     10839     10832     10835     10838     10840
     10832     10835     10838     10841     10833     10832     10835     10836
     10833     10832     10835     10837     10833     10832     10835     10838
     10834     10832     10835     10836     10834     10832     10835     10837
     10834     10832     10835     10838     10835     10838     10841     10842
     10835     10838     10841     10843     10835     10838     10841     10844
     10836     10835     10838     10839     10836     10835     10838     10840
     10836     10835     10838     10841     10837     10835     10838     10839
     10837     10835     10838     10840     10837     10835     10838     10841
     10838     10841     10844     10845     10838     10841     10844     10846
     10838     10841     10844     10847     10839     10838     10841     10842
     10839     10838     10841     10843     10839     10838     10841     10844
     10840     10838     10841     10842     10840     10838     10841     10843
     10840     10838     10841     10844     10841     10844     10847     10848
     10841     10844     10847     10849     10841     10844     10847     10850
     10842     10841     10844     10845     10842     10841     10844     10846
     10842     10841     10844     10847     10843     10841     10844     10845
     10843     10841     10844     10846     10843     10841     10844     10847
     10844     10847     10850     10851     10844     10847     10850     10852
     10844     10847     10850     10853     10845     10844     10847     10848
     10845     10844     10847     10849     10845     10844     10847     10850
     10846     10844     10847     10848     10846     10844     10847     10849
     10846     10844     10847     10850     10848     10847     10850     10851
     10848     10847     10850     10852     10848     10847     10850     10853
     10849     10847     10850     10851     10849     10847     10850     10852
     10849     10847     10850     10853     10854     10855     10870     10871
     10854     10855     10870     10872     10854     10855     10870     10876
     10855     10854     10858     10859     10855     10854     10858     10860
     10855     10854     10858     10861     10855     10854     10862     10863
     10855     10854     10862     10864     10855     10854     10862     10865
     10855     10854     10866     10867     10855     10854     10866     10868
     10855     10854     10866     10869     10855     10870     10876     10873
     10856     10855     10854     10858     10856     10855     10854     10862
     10856     10855     10854     10866     10856     10855     10870     10871
     10856     10855     10870     10872     10856     10855     10870     10876
     10857     10855     10854     10858     10857     10855     10854     10862
     10857     10855     10854     10866     10857     10855     10870     10871
     10857     10855     10870     10872     10857     10855     10870     10876
     10858     10854     10855     10870     10858     10854     10862     10863
     10858     10854     10862     10864     10858     10854     10862     10865
     10858     10854     10866     10867     10858     10854     10866     10868
     10858     10854     10866     10869     10859     10858     10854     10862
     10859     10858     10854     10866     10860     10858     10854     10862
     10860     10858     10854     10866     10861     10858     10854     10862
     10861     10858     10854     10866     10862     10854     10855     10870
     10862     10854     10866     10867     10862     10854     10866     10868
     10862     10854     10866     10869     10863     10862     10854     10866
     10864     10862     10854     10866     10865     10862     10854     10866
     10866     10854     10855     10870     10870     10876     10873     10874
     10870     10876     10873     10875     10870     10876     10873     10877
     10871     10870     10876     10873     10872     10870     10876     10873
     10873     10877     10878     10879     10873     10877     10878     10880
     10873     10877     10878     10881     10874     10873     10877     10878
     10875     10873     10877     10878     10876     10873     10877     10878
     10877     10878     10881     10882     10877     10878     10881     10883
     10877     10878     10881     10889     10878     10881     10883     10884
     10878     10881     10889     10890     10878     10881     10889     10891
     10878     10881     10889     10892     10879     10878     10881     10882
     10879     10878     10881     10883     10879     10878     10881     10889
     10880     10878     10881     10882     10880     10878     10881     10883
     10880     10878     10881     10889     10881     10883     10884     10885
     10881     10883     10884     10886     10881     10889     10892     10893
     10882     10881     10883     10884     10882     10881     10889     10890
     10882     10881     10889     10891     10882     10881     10889     10892
     10883     10881     10889     10890     10883     10881     10889     10891
     10883     10881     10889     10892     10883     10884     10886     10887
     10883     10884     10886     10888     10883     10884     10886     10898
     10884     10883     10881     10889     10884     10886     10898     10899
     10884     10886     10898     10900     10884     10886     10898     10901
     10885     10884     10886     10887     10885     10884     10886     10888
     10885     10884     10886     10898     10886     10898     10901     10902
     10886     10898     10901     10903     10886     10898     10901     10904
     10887     10886     10898     10899     10887     10886     10898     10900
     10887     10886     10898     10901     10888     10886     10898     10899
     10888     10886     10898     10900     10888     10886     10898     10901
     10889     10892     10893     10894     10889     10892     10893     10895
     10890     10889     10892     10893     10891     10889     10892     10893
     10892     10893     10895     10896     10892     10893     10895     10897
     10892     10893     10895     10945     10893     10895     10945     10946
     10893     10895     10945     10947     10893     10895     10945     10948
     10894     10893     10895     10896     10894     10893     10895     10897
     10894     10893     10895     10945     10895     10945     10948     10949
     10895     10945     10948     10950     10895     10945     10948     10951
     10896     10895     10945     10946     10896     10895     10945     10947
     10896     10895     10945     10948     10897     10895     10945     10946
     10897     10895     10945     10947     10897     10895     10945     10948
     10898     10901     10904     10905     10898     10901     10904     10906
     10899     10898     10901     10902     10899     10898     10901     10903
     10899     10898     10901     10904     10900     10898     10901     10902
     10900     10898     10901     10903     10900     10898     10901     10904
     10901     10904     10906     10907     10901     10904     10906     10908
     10902     10901     10904     10905     10902     10901     10904     10906
     10903     10901     10904     10905     10903     10901     10904     10906
     10904     10906     10908     10909     10904     10906     10908     10910
     10904     10906     10908     10911     10905     10904     10906     10907
     10905     10904     10906     10908     10906     10908     10911     10912
     10906     10908     10911     10913     10907     10906     10908     10909
     10907     10906     10908     10910     10907     10906     10908     10911
     10908     10911     10913     10914     10908     10911     10913     10915
     10909     10908     10911     10912     10909     10908     10911     10913
     10910     10908     10911     10912     10910     10908     10911     10913
     10911     10913     10915     10916     10911     10913     10915     10917
     10911     10913     10915     10918     10912     10911     10913     10914
     10912     10911     10913     10915     10913     10915     10918     10919
     10913     10915     10918     10920     10914     10913     10915     10916
     10914     10913     10915     10917     10914     10913     10915     10918
     10915     10918     10920     10921     10915     10918     10920     10922
     10916     10915     10918     10919     10916     10915     10918     10920
     10917     10915     10918     10919     10917     10915     10918     10920
     10918     10920     10922     10923     10918     10920     10922     10924
     10918     10920     10922     10925     10919     10918     10920     10921
     10919     10918     10920     10922     10920     10922     10925     10926
     10920     10922     10925     10927     10921     10920     10922     10923
     10921     10920     10922     10924     10921     10920     10922     10925
     10922     10925     10927     10928     10922     10925     10927     10929
     10923     10922     10925     10926     10923     10922     10925     10927
     10924     10922     10925     10926     10924     10922     10925     10927
     10925     10927     10929     10930     10925     10927     10929     10931
     10925     10927     10929     10932     10926     10925     10927     10928
     10926     10925     10927     10929     10927     10929     10932     10933
     10927     10929     10932     10934     10927     10929     10932     10935
     10928     10927     10929     10930     10928     10927     10929     10931
     10928     10927     10929     10932     10929     10932     10935     10936
     10929     10932     10935     10937     10929     10932     10935     10938
     10930     10929     10932     10933     10930     10929     10932     10934
     10930     10929     10932     10935     10931     10929     10932     10933
     10931     10929     10932     10934     10931     10929     10932     10935
     10932     10935     10938     10939     10932     10935     10938     10940
     10932     10935     10938     10941     10933     10932     10935     10936
     10933     10932     10935     10937     10933     10932     10935     10938
     10934     10932     10935     10936     10934     10932     10935     10937
     10934     10932     10935     10938     10935     10938     10941     10942
     10935     10938     10941     10943     10935     10938     10941     10944
     10936     10935     10938     10939     10936     10935     10938     10940
     10936     10935     10938     10941     10937     10935     10938     10939
     10937     10935     10938     10940     10937     10935     10938     10941
     10939     10938     10941     10942     10939     10938     10941     10943
     10939     10938     10941     10944     10940     10938     10941     10942
     10940     10938     10941     10943     10940     10938     10941     10944
     10945     10948     10951     10952     10945     10948     10951     10953
     10945     10948     10951     10954     10946     10945     10948     10949
     10946     10945     10948     10950     10946     10945     10948     10951
     10947     10945     10948     10949     10947     10945     10948     10950
     10947     10945     10948     10951     10948     10951     10954     10955
     10948     10951     10954     10956     10948     10951     10954     10957
     10949     10948     10951     10952     10949     10948     10951     10953
     10949     10948     10951     10954     10950     10948     10951     10952
     10950     10948     10951     10953     10950     10948     10951     10954
     10951     10954     10957     10958     10951     10954     10957     10959
     10951     10954     10957     10960     10952     10951     10954     10955
     10952     10951     10954     10956     10952     10951     10954     10957
     10953     10951     10954     10955     10953     10951     10954     10956
     10953     10951     10954     10957     10954     10957     10960     10961
     10954     10957     10960     10962     10954     10957     10960     10963
     10955     10954     10957     10958     10955     10954     10957     10959
     10955     10954     10957     10960     10956     10954     10957     10958
     10956     10954     10957     10959     10956     10954     10957     10960
     10957     10960     10963     10964     10957     10960     10963     10965
     10957     10960     10963     10966     10958     10957     10960     10961
     10958     10957     10960     10962     10958     10957     10960     10963
     10959     10957     10960     10961     10959     10957     10960     10962
     10959     10957     10960     10963     10960     10963     10966     10967
     10960     10963     10966     10968     10960     10963     10966     10969
     10961     10960     10963     10964     10961     10960     10963     10965
     10961     10960     10963     10966     10962     10960     10963     10964
     10962     10960     10963     10965     10962     10960     10963     10966
     10963     10966     10969     10970     10963     10966     10969     10971
     10963     10966     10969     10972     10964     10963     10966     10967
     10964     10963     10966     10968     10964     10963     10966     10969
     10965     10963     10966     10967     10965     10963     10966     10968
     10965     10963     10966     10969     10966     10969     10972     10973
     10966     10969     10972     10974     10966     10969     10972     10975
     10967     10966     10969     10970     10967     10966     10969     10971
     10967     10966     10969     10972     10968     10966     10969     10970
     10968     10966     10969     10971     10968     10966     10969     10972
     10969     10972     10975     10976     10969     10972     10975     10977
     10969     10972     10975     10978     10970     10969     10972     10973
     10970     10969     10972     10974     10970     10969     10972     10975
     10971     10969     10972     10973     10971     10969     10972     10974
     10971     10969     10972     10975     10972     10975     10978     10979
     10972     10975     10978     10980     10972     10975     10978     10981
     10973     10972     10975     10976     10973     10972     10975     10977
     10973     10972     10975     10978     10974     10972     10975     10976
     10974     10972     10975     10977     10974     10972     10975     10978
     10975     10978     10981     10982     10975     10978     10981     10983
     10975     10978     10981     10984     10976     10975     10978     10979
     10976     10975     10978     10980     10976     10975     10978     10981
     10977     10975     10978     10979     10977     10975     10978     10980
     10977     10975     10978     10981     10978     10981     10984     10985
     10978     10981     10984     10986     10978     10981     10984     10987
     10979     10978     10981     10982     10979     10978     10981     10983
     10979     10978     10981     10984     10980     10978     10981     10982
     10980     10978     10981     10983     10980     10978     10981     10984
     10981     10984     10987     10988     10981     10984     10987     10989
     10981     10984     10987     10990     10982     10981     10984     10985
     10982     10981     10984     10986     10982     10981     10984     10987
     10983     10981     10984     10985     10983     10981     10984     10986
     10983     10981     10984     10987     10984     10987     10990     10991
     10984     10987     10990     10992     10984     10987     10990     10993
     10985     10984     10987     10988     10985     10984     10987     10989
     10985     10984     10987     10990     10986     10984     10987     10988
     10986     10984     10987     10989     10986     10984     10987     10990
     10988     10987     10990     10991     10988     10987     10990     10992
     10988     10987     10990     10993     10989     10987     10990     10991
     10989     10987     10990     10992     10989     10987     10990     10993
     10994     10998     11000     11001     10994     10998     11000     11002
     10994     10998     11003     11004     10994     10998     11003     11005
     10994     10998     11003     11009     10995     10994     10998     10999
     10995     10994     10998     11000     10995     10994     10998     11003
     10996     10994     10998     10999     10996     10994     10998     11000
     10996     10994     10998     11003     10997     10994     10998     10999
     10997     10994     10998     11000     10997     10994     10998     11003
     10998     11003     11009     11006     10999     10998     11000     11001
     10999     10998     11000     11002     10999     10998     11003     11004
     10999     10998     11003     11005     10999     10998     11003     11009
     11000     10998     11003     11004     11000     10998     11003     11005
     11000     10998     11003     11009     11001     11000     10998     11003
     11002     11000     10998     11003     11003     11009     11006     11007
     11003     11009     11006     11008     11003     11009     11006     11010
     11004     11003     11009     11006     11005     11003     11009     11006
     11006     11010     11011     11012     11006     11010     11011     11013
     11006     11010     11011     11014     11007     11006     11010     11011
     11008     11006     11010     11011     11009     11006     11010     11011
     11010     11011     11014     11015     11010     11011     11014     11016
     11010     11011     11014     11022     11011     11014     11016     11017
     11011     11014     11022     11023     11011     11014     11022     11024
     11011     11014     11022     11025     11012     11011     11014     11015
     11012     11011     11014     11016     11012     11011     11014     11022
     11013     11011     11014     11015     11013     11011     11014     11016
     11013     11011     11014     11022     11014     11016     11017     11018
     11014     11016     11017     11019     11014     11022     11025     11026
     11015     11014     11016     11017     11015     11014     11022     11023
     11015     11014     11022     11024     11015     11014     11022     11025
     11016     11014     11022     11023     11016     11014     11022     11024
     11016     11014     11022     11025     11016     11017     11019     11020
     11016     11017     11019     11021     11016     11017     11019     11031
     11017     11016     11014     11022     11017     11019     11031     11032
     11017     11019     11031     11033     11017     11019     11031     11034
     11018     11017     11019     11020     11018     11017     11019     11021
     11018     11017     11019     11031     11019     11031     11034     11035
     11019     11031     11034     11036     11019     11031     11034     11037
     11020     11019     11031     11032     11020     11019     11031     11033
     11020     11019     11031     11034     11021     11019     11031     11032
     11021     11019     11031     11033     11021     11019     11031     11034
     11022     11025     11026     11027     11022     11025     11026     11028
     11023     11022     11025     11026     11024     11022     11025     11026
     11025     11026     11028     11029     11025     11026     11028     11030
     11025     11026     11028     11078     11026     11028     11078     11079
     11026     11028     11078     11080     11026     11028     11078     11081
     11027     11026     11028     11029     11027     11026     11028     11030
     11027     11026     11028     11078     11028     11078     11081     11082
     11028     11078     11081     11083     11028     11078     11081     11084
     11029     11028     11078     11079     11029     11028     11078     11080
     11029     11028     11078     11081     11030     11028     11078     11079
     11030     11028     11078     11080     11030     11028     11078     11081
     11031     11034     11037     11038     11031     11034     11037     11039
     11032     11031     11034     11035     11032     11031     11034     11036
     11032     11031     11034     11037     11033     11031     11034     11035
     11033     11031     11034     11036     11033     11031     11034     11037
     11034     11037     11039     11040     11034     11037     11039     11041
     11035     11034     11037     11038     11035     11034     11037     11039
     11036     11034     11037     11038     11036     11034     11037     11039
     11037     11039     11041     11042     11037     11039     11041     11043
     11037     11039     11041     11044     11038     11037     11039     11040
     11038     11037     11039     11041     11039     11041     11044     11045
     11039     11041     11044     11046     11040     11039     11041     11042
     11040     11039     11041     11043     11040     11039     11041     11044
     11041     11044     11046     11047     11041     11044     11046     11048
     11042     11041     11044     11045     11042     11041     11044     11046
     11043     11041     11044     11045     11043     11041     11044     11046
     11044     11046     11048     11049     11044     11046     11048     11050
     11044     11046     11048     11051     11045     11044     11046     11047
     11045     11044     11046     11048     11046     11048     11051     11052
     11046     11048     11051     11053     11047     11046     11048     11049
     11047     11046     11048     11050     11047     11046     11048     11051
     11048     11051     11053     11054     11048     11051     11053     11055
     11049     11048     11051     11052     11049     11048     11051     11053
     11050     11048     11051     11052     11050     11048     11051     11053
     11051     11053     11055     11056     11051     11053     11055     11057
     11051     11053     11055     11058     11052     11051     11053     11054
     11052     11051     11053     11055     11053     11055     11058     11059
     11053     11055     11058     11060     11054     11053     11055     11056
     11054     11053     11055     11057     11054     11053     11055     11058
     11055     11058     11060     11061     11055     11058     11060     11062
     11056     11055     11058     11059     11056     11055     11058     11060
     11057     11055     11058     11059     11057     11055     11058     11060
     11058     11060     11062     11063     11058     11060     11062     11064
     11058     11060     11062     11065     11059     11058     11060     11061
     11059     11058     11060     11062     11060     11062     11065     11066
     11060     11062     11065     11067     11060     11062     11065     11068
     11061     11060     11062     11063     11061     11060     11062     11064
     11061     11060     11062     11065     11062     11065     11068     11069
     11062     11065     11068     11070     11062     11065     11068     11071
     11063     11062     11065     11066     11063     11062     11065     11067
     11063     11062     11065     11068     11064     11062     11065     11066
     11064     11062     11065     11067     11064     11062     11065     11068
     11065     11068     11071     11072     11065     11068     11071     11073
     11065     11068     11071     11074     11066     11065     11068     11069
     11066     11065     11068     11070     11066     11065     11068     11071
     11067     11065     11068     11069     11067     11065     11068     11070
     11067     11065     11068     11071     11068     11071     11074     11075
     11068     11071     11074     11076     11068     11071     11074     11077
     11069     11068     11071     11072     11069     11068     11071     11073
     11069     11068     11071     11074     11070     11068     11071     11072
     11070     11068     11071     11073     11070     11068     11071     11074
     11072     11071     11074     11075     11072     11071     11074     11076
     11072     11071     11074     11077     11073     11071     11074     11075
     11073     11071     11074     11076     11073     11071     11074     11077
     11078     11081     11084     11085     11078     11081     11084     11086
     11078     11081     11084     11087     11079     11078     11081     11082
     11079     11078     11081     11083     11079     11078     11081     11084
     11080     11078     11081     11082     11080     11078     11081     11083
     11080     11078     11081     11084     11081     11084     11087     11088
     11081     11084     11087     11089     11081     11084     11087     11090
     11082     11081     11084     11085     11082     11081     11084     11086
     11082     11081     11084     11087     11083     11081     11084     11085
     11083     11081     11084     11086     11083     11081     11084     11087
     11084     11087     11090     11091     11084     11087     11090     11092
     11084     11087     11090     11093     11085     11084     11087     11088
     11085     11084     11087     11089     11085     11084     11087     11090
     11086     11084     11087     11088     11086     11084     11087     11089
     11086     11084     11087     11090     11087     11090     11093     11094
     11087     11090     11093     11095     11087     11090     11093     11096
     11088     11087     11090     11091     11088     11087     11090     11092
     11088     11087     11090     11093     11089     11087     11090     11091
     11089     11087     11090     11092     11089     11087     11090     11093
     11090     11093     11096     11097     11090     11093     11096     11098
     11090     11093     11096     11099     11091     11090     11093     11094
     11091     11090     11093     11095     11091     11090     11093     11096
     11092     11090     11093     11094     11092     11090     11093     11095
     11092     11090     11093     11096     11093     11096     11099     11100
     11093     11096     11099     11101     11093     11096     11099     11102
     11094     11093     11096     11097     11094     11093     11096     11098
     11094     11093     11096     11099     11095     11093     11096     11097
     11095     11093     11096     11098     11095     11093     11096     11099
     11096     11099     11102     11103     11096     11099     11102     11104
     11096     11099     11102     11105     11097     11096     11099     11100
     11097     11096     11099     11101     11097     11096     11099     11102
     11098     11096     11099     11100     11098     11096     11099     11101
     11098     11096     11099     11102     11099     11102     11105     11106
     11099     11102     11105     11107     11099     11102     11105     11108
     11100     11099     11102     11103     11100     11099     11102     11104
     11100     11099     11102     11105     11101     11099     11102     11103
     11101     11099     11102     11104     11101     11099     11102     11105
     11102     11105     11108     11109     11102     11105     11108     11110
     11102     11105     11108     11111     11103     11102     11105     11106
     11103     11102     11105     11107     11103     11102     11105     11108
     11104     11102     11105     11106     11104     11102     11105     11107
     11104     11102     11105     11108     11105     11108     11111     11112
     11105     11108     11111     11113     11105     11108     11111     11114
     11106     11105     11108     11109     11106     11105     11108     11110
     11106     11105     11108     11111     11107     11105     11108     11109
     11107     11105     11108     11110     11107     11105     11108     11111
     11108     11111     11114     11115     11108     11111     11114     11116
     11108     11111     11114     11117     11109     11108     11111     11112
     11109     11108     11111     11113     11109     11108     11111     11114
     11110     11108     11111     11112     11110     11108     11111     11113
     11110     11108     11111     11114     11111     11114     11117     11118
     11111     11114     11117     11119     11111     11114     11117     11120
     11112     11111     11114     11115     11112     11111     11114     11116
     11112     11111     11114     11117     11113     11111     11114     11115
     11113     11111     11114     11116     11113     11111     11114     11117
     11114     11117     11120     11121     11114     11117     11120     11122
     11114     11117     11120     11123     11115     11114     11117     11118
     11115     11114     11117     11119     11115     11114     11117     11120
     11116     11114     11117     11118     11116     11114     11117     11119
     11116     11114     11117     11120     11117     11120     11123     11124
     11117     11120     11123     11125     11117     11120     11123     11126
     11118     11117     11120     11121     11118     11117     11120     11122
     11118     11117     11120     11123     11119     11117     11120     11121
     11119     11117     11120     11122     11119     11117     11120     11123
     11121     11120     11123     11124     11121     11120     11123     11125
     11121     11120     11123     11126     11122     11120     11123     11124
     11122     11120     11123     11125     11122     11120     11123     11126
     11127     11131     11134     11135     11127     11131     11134     11165
     11127     11173     11170     11165     11127     11173     11170     11171
     11127     11173     11170     11172     11128     11127     11129     11130
     11128     11127     11131     11132     11128     11127     11131     11133
     11128     11127     11131     11134     11128     11127     11173     11170
     11128     11127     11173     11174     11128     11127     11173     11175
     11129     11127     11131     11132     11129     11127     11131     11133
     11129     11127     11131     11134     11129     11127     11173     11170
     11129     11127     11173     11174     11129     11127     11173     11175
     11130     11129     11127     11131     11130     11129     11127     11173
     11131     11127     11173     11170     11131     11127     11173     11174
     11131     11127     11173     11175     11131     11134     11135     11136
     11131     11134     11135     11137     11131     11134     11165     11163
     11131     11134     11165     11166     11131     11134     11165     11170
     11132     11131     11127     11173     11132     11131     11134     11135
     11132     11131     11134     11165     11133     11131     11127     11173
     11133     11131     11134     11135     11133     11131     11134     11165
     11134     11131     11127     11173     11134     11135     11137     11138
     11134     11135     11137     11139     11134     11135     11137     11140
     11134     11165     11163     11140     11134     11165     11163     11160
     11134     11165     11163     11164     11134     11165     11166     11167
     11134     11165     11166     11168     11134     11165     11166     11169
     11134     11165     11170     11171     11134     11165     11170     11172
     11134     11165     11170     11173     11135     11134     11165     11163
     11135     11134     11165     11166     11135     11134     11165     11170
     11135     11137     11140     11141     11135     11137     11140     11142
     11135     11137     11140     11163     11136     11135     11134     11165
     11136     11135     11137     11138     11136     11135     11137     11139
     11136     11135     11137     11140     11137     11135     11134     11165
     11137     11140     11142     11143     11137     11140     11142     11144
     11137     11140     11142     11152     11137     11140     11163     11160
     11137     11140     11163     11164     11137     11140     11163     11165
     11138     11137     11140     11141     11138     11137     11140     11142
     11138     11137     11140     11163     11139     11137     11140     11141
     11139     11137     11140     11142     11139     11137     11140     11163
     11140     11142     11144     11145     11140     11142     11144     11146
     11140     11142     11144     11147     11140     11142     11152     11150
     11140     11142     11152     11153     11140     11142     11152     11157
     11140     11163     11160     11157     11140     11163     11160     11161
     11140     11163     11160     11162     11140     11163     11165     11166
     11140     11163     11165     11170     11141     11140     11142     11143
     11141     11140     11142     11144     11141     11140     11142     11152
     11141     11140     11163     11160     11141     11140     11163     11164
     11141     11140     11163     11165     11142     11140     11163     11160
     11142     11140     11163     11164     11142     11140     11163     11165
     11142     11144     11147     11148     11142     11144     11147     11149
     11142     11144     11147     11150     11142     11152     11150     11147
     11142     11152     11150     11151     11142     11152     11150     11176
     11142     11152     11153     11154     11142     11152     11153     11155
     11142     11152     11153     11156     11142     11152     11157     11158
     11142     11152     11157     11159     11142     11152     11157     11160
     11143     11142     11140     11163     11143     11142     11144     11145
     11143     11142     11144     11146     11143     11142     11144     11147
     11143     11142     11152     11150     11143     11142     11152     11153
     11143     11142     11152     11157     11144     11142     11140     11163
     11144     11142     11152     11150     11144     11142     11152     11153
     11144     11142     11152     11157     11144     11147     11150     11151
     11144     11147     11150     11152     11144     11147     11150     11176
     11145     11144     11142     11152     11145     11144     11147     11148
     11145     11144     11147     11149     11145     11144     11147     11150
     11146     11144     11142     11152     11146     11144     11147     11148
     11146     11144     11147     11149     11146     11144     11147     11150
     11147     11144     11142     11152     11147     11150     11152     11153
     11147     11150     11152     11157     11147     11150     11176     11177
     11147     11150     11176     11178     11147     11150     11176     11182
     11148     11147     11150     11151     11148     11147     11150     11152
     11148     11147     11150     11176     11149     11147     11150     11151
     11149     11147     11150     11152     11149     11147     11150     11176
     11150     11152     11153     11154     11150     11152     11153     11155
     11150     11152     11153     11156     11150     11152     11157     11158
     11150     11152     11157     11159     11150     11152     11157     11160
     11150     11176     11178     11179     11150     11176     11178     11180
     11150     11176     11178     11181     11150     11176     11182     11183
     11150     11176     11182     11184     11150     11176     11182     11185
     11151     11150     11152     11153     11151     11150     11152     11157
     11151     11150     11176     11177     11151     11150     11176     11178
     11151     11150     11176     11182     11152     11142     11140     11163
     11152     11150     11176     11177     11152     11150     11176     11178
     11152     11150     11176     11182     11152     11157     11160     11161
     11152     11157     11160     11162     11152     11157     11160     11163
     11153     11152     11150     11176     11153     11152     11157     11158
     11153     11152     11157     11159     11153     11152     11157     11160
     11154     11153     11152     11157     11155     11153     11152     11157
     11156     11153     11152     11157     11157     11152     11150     11176
     11157     11160     11163     11164     11157     11160     11163     11165
     11158     11157     11160     11161     11158     11157     11160     11162
     11158     11157     11160     11163     11159     11157     11160     11161
     11159     11157     11160     11162     11159     11157     11160     11163
     11160     11163     11165     11166     11160     11163     11165     11170
     11161     11160     11163     11164     11161     11160     11163     11165
     11162     11160     11163     11164     11162     11160     11163     11165
     11163     11165     11166     11167     11163     11165     11166     11168
     11163     11165     11166     11169     11163     11165     11170     11171
     11163     11165     11170     11172     11163     11165     11170     11173
     11164     11163     11165     11166     11164     11163     11165     11170
     11165     11170     11173     11174     11165     11170     11173     11175
     11166     11165     11170     11171     11166     11165     11170     11172
     11166     11165     11170     11173     11167     11166     11165     11170
     11168     11166     11165     11170     11169     11166     11165     11170
     11171     11170     11173     11174     11171     11170     11173     11175
     11172     11170     11173     11174     11172     11170     11173     11175
     11176     11182     11185     11186     11176     11182     11185     11187
     11176     11182     11185     11188     11177     11176     11178     11179
     11177     11176     11178     11180     11177     11176     11178     11181
     11177     11176     11182     11183     11177     11176     11182     11184
     11177     11176     11182     11185     11178     11176     11182     11183
     11178     11176     11182     11184     11178     11176     11182     11185
     11179     11178     11176     11182     11180     11178     11176     11182
     11181     11178     11176     11182     11182     11185     11188     11189
     11182     11185     11188     11190     11182     11185     11188     11191
     11183     11182     11185     11186     11183     11182     11185     11187
     11183     11182     11185     11188     11184     11182     11185     11186
     11184     11182     11185     11187     11184     11182     11185     11188
     11185     11188     11191     11192     11185     11188     11191     11193
     11185     11188     11191     11197     11186     11185     11188     11189
     11186     11185     11188     11190     11186     11185     11188     11191
     11187     11185     11188     11189     11187     11185     11188     11190
     11187     11185     11188     11191     11188     11191     11193     11194
     11188     11191     11193     11195     11188     11191     11193     11196
     11188     11191     11197     11198     11188     11191     11197     11199
     11188     11191     11197     11200     11189     11188     11191     11192
     11189     11188     11191     11193     11189     11188     11191     11197
     11190     11188     11191     11192     11190     11188     11191     11193
     11190     11188     11191     11197     11192     11191     11193     11194
     11192     11191     11193     11195     11192     11191     11193     11196
     11192     11191     11197     11198     11192     11191     11197     11199
     11192     11191     11197     11200     11193     11191     11197     11198
     11193     11191     11197     11199     11193     11191     11197     11200
     11194     11193     11191     11197     11195     11193     11191     11197
     11196     11193     11191     11197     11201     11214     11217     11218
     11201     11214     11217     11219     11201     11214     11217     11224
     11202     11201     11206     11207     11202     11201     11206     11208
     11202     11201     11206     11209     11202     11201     11210     11211
     11202     11201     11210     11212     11202     11201     11210     11213
     11202     11201     11214     11215     11202     11201     11214     11216
     11202     11201     11214     11217     11203     11202     11201     11206
     11203     11202     11201     11210     11203     11202     11201     11214
     11204     11202     11201     11206     11204     11202     11201     11210
     11204     11202     11201     11214     11205     11202     11201     11206
     11205     11202     11201     11210     11205     11202     11201     11214
     11206     11201     11210     11211     11206     11201     11210     11212
     11206     11201     11210     11213     11206     11201     11214     11215
     11206     11201     11214     11216     11206     11201     11214     11217
     11207     11206     11201     11210     11207     11206     11201     11214
     11208     11206     11201     11210     11208     11206     11201     11214
     11209     11206     11201     11210     11209     11206     11201     11214
     11210     11201     11214     11215     11210     11201     11214     11216
     11210     11201     11214     11217     11211     11210     11201     11214
     11212     11210     11201     11214     11213     11210     11201     11214
     11214     11217     11224     11220     11215     11214     11217     11218
     11215     11214     11217     11219     11215     11214     11217     11224
     11216     11214     11217     11218     11216     11214     11217     11219
     11216     11214     11217     11224     11217     11224     11220     11221
     11217     11224     11220     11222     11217     11224     11220     11223
     11218     11217     11224     11220     11219     11217     11224     11220
     11220     11223     11225     11226     11220     11223     11225     11227
     11220     11223     11225     11230     11221     11220     11223     11225
     11222     11220     11223     11225     11223     11225     11230     11228
     11223     11225     11230     11231     11223     11225     11230     11232
     11224     11220     11223     11225     11225     11230     11228     11229
     11225     11230     11228     11280     11225     11230     11232     11233
     11225     11230     11232     11234     11225     11230     11232     11236
     11226     11225     11230     11228     11226     11225     11230     11231
     11226     11225     11230     11232     11227     11225     11230     11228
     11227     11225     11230     11231     11227     11225     11230     11232
     11228     11230     11232     11233     11228     11230     11232     11234
     11228     11230     11232     11236     11228     11280     11282     11283
     11228     11280     11282     11284     11228     11280     11282     11285
     11229     11228     11230     11231     11229     11228     11230     11232
     11229     11228     11280     11281     11229     11228     11280     11282
     11230     11228     11280     11281     11230     11228     11280     11282
     11230     11232     11234     11235     11230     11232     11236     11237
     11230     11232     11236     11238     11231     11230     11228     11280
     11231     11230     11232     11233     11231     11230     11232     11234
     11231     11230     11232     11236     11232     11230     11228     11280
     11232     11236     11238     11239     11232     11236     11238     11240
     11233     11232     11234     11235     11233     11232     11236     11237
     11233     11232     11236     11238     11234     11232     11236     11237
     11234     11232     11236     11238     11235     11234     11232     11236
     11236     11238     11240     11241     11236     11238     11240     11242
     11236     11238     11240     11243     11237     11236     11238     11239
     11237     11236     11238     11240     11238     11240     11243     11244
     11238     11240     11243     11245     11238     11240     11243     11246
     11239     11238     11240     11241     11239     11238     11240     11242
     11239     11238     11240     11243     11240     11243     11246     11247
     11240     11243     11246     11248     11240     11243     11246     11249
     11241     11240     11243     11244     11241     11240     11243     11245
     11241     11240     11243     11246     11242     11240     11243     11244
     11242     11240     11243     11245     11242     11240     11243     11246
     11243     11246     11249     11250     11243     11246     11249     11251
     11243     11246     11249     11252     11244     11243     11246     11247
     11244     11243     11246     11248     11244     11243     11246     11249
     11245     11243     11246     11247     11245     11243     11246     11248
     11245     11243     11246     11249     11246     11249     11252     11253
     11246     11249     11252     11254     11246     11249     11252     11255
     11247     11246     11249     11250     11247     11246     11249     11251
     11247     11246     11249     11252     11248     11246     11249     11250
     11248     11246     11249     11251     11248     11246     11249     11252
     11249     11252     11255     11256     11249     11252     11255     11257
     11249     11252     11255     11258     11250     11249     11252     11253
     11250     11249     11252     11254     11250     11249     11252     11255
     11251     11249     11252     11253     11251     11249     11252     11254
     11251     11249     11252     11255     11252     11255     11258     11259
     11252     11255     11258     11260     11252     11255     11258     11261
     11253     11252     11255     11256     11253     11252     11255     11257
     11253     11252     11255     11258     11254     11252     11255     11256
     11254     11252     11255     11257     11254     11252     11255     11258
     11255     11258     11261     11262     11255     11258     11261     11263
     11255     11258     11261     11264     11256     11255     11258     11259
     11256     11255     11258     11260     11256     11255     11258     11261
     11257     11255     11258     11259     11257     11255     11258     11260
     11257     11255     11258     11261     11258     11261     11264     11265
     11258     11261     11264     11266     11258     11261     11264     11267
     11259     11258     11261     11262     11259     11258     11261     11263
     11259     11258     11261     11264     11260     11258     11261     11262
     11260     11258     11261     11263     11260     11258     11261     11264
     11261     11264     11267     11268     11261     11264     11267     11269
     11261     11264     11267     11270     11262     11261     11264     11265
     11262     11261     11264     11266     11262     11261     11264     11267
     11263     11261     11264     11265     11263     11261     11264     11266
     11263     11261     11264     11267     11264     11267     11270     11271
     11264     11267     11270     11272     11264     11267     11270     11273
     11265     11264     11267     11268     11265     11264     11267     11269
     11265     11264     11267     11270     11266     11264     11267     11268
     11266     11264     11267     11269     11266     11264     11267     11270
     11267     11270     11273     11274     11267     11270     11273     11275
     11267     11270     11273     11276     11268     11267     11270     11271
     11268     11267     11270     11272     11268     11267     11270     11273
     11269     11267     11270     11271     11269     11267     11270     11272
     11269     11267     11270     11273     11270     11273     11276     11277
     11270     11273     11276     11278     11270     11273     11276     11279
     11271     11270     11273     11274     11271     11270     11273     11275
     11271     11270     11273     11276     11272     11270     11273     11274
     11272     11270     11273     11275     11272     11270     11273     11276
     11274     11273     11276     11277     11274     11273     11276     11278
     11274     11273     11276     11279     11275     11273     11276     11277
     11275     11273     11276     11278     11275     11273     11276     11279
     11280     11282     11285     11286     11280     11282     11285     11287
     11280     11282     11285     11288     11281     11280     11282     11283
     11281     11280     11282     11284     11281     11280     11282     11285
     11282     11285     11288     11289     11282     11285     11288     11290
     11282     11285     11288     11291     11283     11282     11285     11286
     11283     11282     11285     11287     11283     11282     11285     11288
     11284     11282     11285     11286     11284     11282     11285     11287
     11284     11282     11285     11288     11285     11288     11291     11292
     11285     11288     11291     11293     11285     11288     11291     11294
     11286     11285     11288     11289     11286     11285     11288     11290
     11286     11285     11288     11291     11287     11285     11288     11289
     11287     11285     11288     11290     11287     11285     11288     11291
     11288     11291     11294     11295     11288     11291     11294     11296
     11288     11291     11294     11297     11289     11288     11291     11292
     11289     11288     11291     11293     11289     11288     11291     11294
     11290     11288     11291     11292     11290     11288     11291     11293
     11290     11288     11291     11294     11291     11294     11297     11298
     11291     11294     11297     11299     11291     11294     11297     11300
     11292     11291     11294     11295     11292     11291     11294     11296
     11292     11291     11294     11297     11293     11291     11294     11295
     11293     11291     11294     11296     11293     11291     11294     11297
     11294     11297     11300     11301     11294     11297     11300     11302
     11294     11297     11300     11303     11295     11294     11297     11298
     11295     11294     11297     11299     11295     11294     11297     11300
     11296     11294     11297     11298     11296     11294     11297     11299
     11296     11294     11297     11300     11297     11300     11303     11304
     11297     11300     11303     11305     11298     11297     11300     11301
     11298     11297     11300     11302     11298     11297     11300     11303
     11299     11297     11300     11301     11299     11297     11300     11302
     11299     11297     11300     11303     11300     11303     11305     11306
     11300     11303     11305     11307     11301     11300     11303     11304
     11301     11300     11303     11305     11302     11300     11303     11304
     11302     11300     11303     11305     11303     11305     11307     11308
     11303     11305     11307     11309     11303     11305     11307     11310
     11304     11303     11305     11306     11304     11303     11305     11307
     11305     11307     11310     11311     11305     11307     11310     11312
     11305     11307     11310     11313     11306     11305     11307     11308
     11306     11305     11307     11309     11306     11305     11307     11310
     11307     11310     11313     11314     11307     11310     11313     11315
     11307     11310     11313     11316     11308     11307     11310     11311
     11308     11307     11310     11312     11308     11307     11310     11313
     11309     11307     11310     11311     11309     11307     11310     11312
     11309     11307     11310     11313     11310     11313     11316     11317
     11310     11313     11316     11318     11310     11313     11316     11319
     11311     11310     11313     11314     11311     11310     11313     11315
     11311     11310     11313     11316     11312     11310     11313     11314
     11312     11310     11313     11315     11312     11310     11313     11316
     11313     11316     11319     11320     11313     11316     11319     11321
     11313     11316     11319     11322     11314     11313     11316     11317
     11314     11313     11316     11318     11314     11313     11316     11319
     11315     11313     11316     11317     11315     11313     11316     11318
     11315     11313     11316     11319     11316     11319     11322     11323
     11316     11319     11322     11324     11316     11319     11322     11325
     11317     11316     11319     11320     11317     11316     11319     11321
     11317     11316     11319     11322     11318     11316     11319     11320
     11318     11316     11319     11321     11318     11316     11319     11322
     11319     11322     11325     11326     11319     11322     11325     11327
     11319     11322     11325     11328     11320     11319     11322     11323
     11320     11319     11322     11324     11320     11319     11322     11325
     11321     11319     11322     11323     11321     11319     11322     11324
     11321     11319     11322     11325     11322     11325     11328     11329
     11322     11325     11328     11330     11322     11325     11328     11331
     11323     11322     11325     11326     11323     11322     11325     11327
     11323     11322     11325     11328     11324     11322     11325     11326
     11324     11322     11325     11327     11324     11322     11325     11328
     11326     11325     11328     11329     11326     11325     11328     11330
     11326     11325     11328     11331     11327     11325     11328     11329
     11327     11325     11328     11330     11327     11325     11328     11331
     11332     11336     11338     11339     11332     11336     11338     11340
     11332     11336     11341     11342     11332     11336     11341     11343
     11332     11336     11341     11347     11333     11332     11336     11337
     11333     11332     11336     11338     11333     11332     11336     11341
     11334     11332     11336     11337     11334     11332     11336     11338
     11334     11332     11336     11341     11335     11332     11336     11337
     11335     11332     11336     11338     11335     11332     11336     11341
     11336     11341     11347     11344     11337     11336     11338     11339
     11337     11336     11338     11340     11337     11336     11341     11342
     11337     11336     11341     11343     11337     11336     11341     11347
     11338     11336     11341     11342     11338     11336     11341     11343
     11338     11336     11341     11347     11339     11338     11336     11341
     11340     11338     11336     11341     11341     11347     11344     11345
     11341     11347     11344     11346     11341     11347     11344     11348
     11342     11341     11347     11344     11343     11341     11347     11344
     11344     11348     11349     11350     11344     11348     11349     11351
     11344     11348     11349     11352     11345     11344     11348     11349
     11346     11344     11348     11349     11347     11344     11348     11349
     11348     11349     11352     11353     11348     11349     11352     11354
     11348     11349     11352     11360     11349     11352     11354     11355
     11349     11352     11360     11361     11349     11352     11360     11362
     11349     11352     11360     11363     11350     11349     11352     11353
     11350     11349     11352     11354     11350     11349     11352     11360
     11351     11349     11352     11353     11351     11349     11352     11354
     11351     11349     11352     11360     11352     11354     11355     11356
     11352     11354     11355     11357     11352     11360     11363     11364
     11353     11352     11354     11355     11353     11352     11360     11361
     11353     11352     11360     11362     11353     11352     11360     11363
     11354     11352     11360     11361     11354     11352     11360     11362
     11354     11352     11360     11363     11354     11355     11357     11358
     11354     11355     11357     11359     11354     11355     11357     11369
     11355     11354     11352     11360     11355     11357     11369     11370
     11355     11357     11369     11371     11355     11357     11369     11372
     11356     11355     11357     11358     11356     11355     11357     11359
     11356     11355     11357     11369     11357     11369     11372     11373
     11357     11369     11372     11374     11357     11369     11372     11375
     11358     11357     11369     11370     11358     11357     11369     11371
     11358     11357     11369     11372     11359     11357     11369     11370
     11359     11357     11369     11371     11359     11357     11369     11372
     11360     11363     11364     11365     11360     11363     11364     11366
     11361     11360     11363     11364     11362     11360     11363     11364
     11363     11364     11366     11367     11363     11364     11366     11368
     11363     11364     11366     11416     11364     11366     11416     11417
     11364     11366     11416     11418     11364     11366     11416     11419
     11365     11364     11366     11367     11365     11364     11366     11368
     11365     11364     11366     11416     11366     11416     11419     11420
     11366     11416     11419     11421     11366     11416     11419     11422
     11367     11366     11416     11417     11367     11366     11416     11418
     11367     11366     11416     11419     11368     11366     11416     11417
     11368     11366     11416     11418     11368     11366     11416     11419
     11369     11372     11375     11376     11369     11372     11375     11377
     11370     11369     11372     11373     11370     11369     11372     11374
     11370     11369     11372     11375     11371     11369     11372     11373
     11371     11369     11372     11374     11371     11369     11372     11375
     11372     11375     11377     11378     11372     11375     11377     11379
     11373     11372     11375     11376     11373     11372     11375     11377
     11374     11372     11375     11376     11374     11372     11375     11377
     11375     11377     11379     11380     11375     11377     11379     11381
     11375     11377     11379     11382     11376     11375     11377     11378
     11376     11375     11377     11379     11377     11379     11382     11383
     11377     11379     11382     11384     11378     11377     11379     11380
     11378     11377     11379     11381     11378     11377     11379     11382
     11379     11382     11384     11385     11379     11382     11384     11386
     11380     11379     11382     11383     11380     11379     11382     11384
     11381     11379     11382     11383     11381     11379     11382     11384
     11382     11384     11386     11387     11382     11384     11386     11388
     11382     11384     11386     11389     11383     11382     11384     11385
     11383     11382     11384     11386     11384     11386     11389     11390
     11384     11386     11389     11391     11385     11384     11386     11387
     11385     11384     11386     11388     11385     11384     11386     11389
     11386     11389     11391     11392     11386     11389     11391     11393
     11387     11386     11389     11390     11387     11386     11389     11391
     11388     11386     11389     11390     11388     11386     11389     11391
     11389     11391     11393     11394     11389     11391     11393     11395
     11389     11391     11393     11396     11390     11389     11391     11392
     11390     11389     11391     11393     11391     11393     11396     11397
     11391     11393     11396     11398     11392     11391     11393     11394
     11392     11391     11393     11395     11392     11391     11393     11396
     11393     11396     11398     11399     11393     11396     11398     11400
     11394     11393     11396     11397     11394     11393     11396     11398
     11395     11393     11396     11397     11395     11393     11396     11398
     11396     11398     11400     11401     11396     11398     11400     11402
     11396     11398     11400     11403     11397     11396     11398     11399
     11397     11396     11398     11400     11398     11400     11403     11404
     11398     11400     11403     11405     11398     11400     11403     11406
     11399     11398     11400     11401     11399     11398     11400     11402
     11399     11398     11400     11403     11400     11403     11406     11407
     11400     11403     11406     11408     11400     11403     11406     11409
     11401     11400     11403     11404     11401     11400     11403     11405
     11401     11400     11403     11406     11402     11400     11403     11404
     11402     11400     11403     11405     11402     11400     11403     11406
     11403     11406     11409     11410     11403     11406     11409     11411
     11403     11406     11409     11412     11404     11403     11406     11407
     11404     11403     11406     11408     11404     11403     11406     11409
     11405     11403     11406     11407     11405     11403     11406     11408
     11405     11403     11406     11409     11406     11409     11412     11413
     11406     11409     11412     11414     11406     11409     11412     11415
     11407     11406     11409     11410     11407     11406     11409     11411
     11407     11406     11409     11412     11408     11406     11409     11410
     11408     11406     11409     11411     11408     11406     11409     11412
     11410     11409     11412     11413     11410     11409     11412     11414
     11410     11409     11412     11415     11411     11409     11412     11413
     11411     11409     11412     11414     11411     11409     11412     11415
     11416     11419     11422     11423     11416     11419     11422     11424
     11416     11419     11422     11425     11417     11416     11419     11420
     11417     11416     11419     11421     11417     11416     11419     11422
     11418     11416     11419     11420     11418     11416     11419     11421
     11418     11416     11419     11422     11419     11422     11425     11426
     11419     11422     11425     11427     11419     11422     11425     11428
     11420     11419     11422     11423     11420     11419     11422     11424
     11420     11419     11422     11425     11421     11419     11422     11423
     11421     11419     11422     11424     11421     11419     11422     11425
     11422     11425     11428     11429     11422     11425     11428     11430
     11422     11425     11428     11431     11423     11422     11425     11426
     11423     11422     11425     11427     11423     11422     11425     11428
     11424     11422     11425     11426     11424     11422     11425     11427
     11424     11422     11425     11428     11425     11428     11431     11432
     11425     11428     11431     11433     11425     11428     11431     11434
     11426     11425     11428     11429     11426     11425     11428     11430
     11426     11425     11428     11431     11427     11425     11428     11429
     11427     11425     11428     11430     11427     11425     11428     11431
     11428     11431     11434     11435     11428     11431     11434     11436
     11428     11431     11434     11437     11429     11428     11431     11432
     11429     11428     11431     11433     11429     11428     11431     11434
     11430     11428     11431     11432     11430     11428     11431     11433
     11430     11428     11431     11434     11431     11434     11437     11438
     11431     11434     11437     11439     11431     11434     11437     11440
     11432     11431     11434     11435     11432     11431     11434     11436
     11432     11431     11434     11437     11433     11431     11434     11435
     11433     11431     11434     11436     11433     11431     11434     11437
     11434     11437     11440     11441     11434     11437     11440     11442
     11434     11437     11440     11443     11435     11434     11437     11438
     11435     11434     11437     11439     11435     11434     11437     11440
     11436     11434     11437     11438     11436     11434     11437     11439
     11436     11434     11437     11440     11437     11440     11443     11444
     11437     11440     11443     11445     11437     11440     11443     11446
     11438     11437     11440     11441     11438     11437     11440     11442
     11438     11437     11440     11443     11439     11437     11440     11441
     11439     11437     11440     11442     11439     11437     11440     11443
     11440     11443     11446     11447     11440     11443     11446     11448
     11440     11443     11446     11449     11441     11440     11443     11444
     11441     11440     11443     11445     11441     11440     11443     11446
     11442     11440     11443     11444     11442     11440     11443     11445
     11442     11440     11443     11446     11443     11446     11449     11450
     11443     11446     11449     11451     11443     11446     11449     11452
     11444     11443     11446     11447     11444     11443     11446     11448
     11444     11443     11446     11449     11445     11443     11446     11447
     11445     11443     11446     11448     11445     11443     11446     11449
     11446     11449     11452     11453     11446     11449     11452     11454
     11446     11449     11452     11455     11447     11446     11449     11450
     11447     11446     11449     11451     11447     11446     11449     11452
     11448     11446     11449     11450     11448     11446     11449     11451
     11448     11446     11449     11452     11449     11452     11455     11456
     11449     11452     11455     11457     11449     11452     11455     11458
     11450     11449     11452     11453     11450     11449     11452     11454
     11450     11449     11452     11455     11451     11449     11452     11453
     11451     11449     11452     11454     11451     11449     11452     11455
     11452     11455     11458     11459     11452     11455     11458     11460
     11452     11455     11458     11461     11453     11452     11455     11456
     11453     11452     11455     11457     11453     11452     11455     11458
     11454     11452     11455     11456     11454     11452     11455     11457
     11454     11452     11455     11458     11455     11458     11461     11462
     11455     11458     11461     11463     11455     11458     11461     11464
     11456     11455     11458     11459     11456     11455     11458     11460
     11456     11455     11458     11461     11457     11455     11458     11459
     11457     11455     11458     11460     11457     11455     11458     11461
     11459     11458     11461     11462     11459     11458     11461     11463
     11459     11458     11461     11464     11460     11458     11461     11462
     11460     11458     11461     11463     11460     11458     11461     11464
     11465     11469     11472     11473     11465     11469     11472     11474
     11465     11469     11472     11478     11466     11465     11469     11470
     11466     11465     11469     11471     11466     11465     11469     11472
     11467     11465     11469     11470     11467     11465     11469     11471
     11467     11465     11469     11472     11468     11465     11469     11470
     11468     11465     11469     11471     11468     11465     11469     11472
     11469     11472     11478     11475     11470     11469     11472     11473
     11470     11469     11472     11474     11470     11469     11472     11478
     11471     11469     11472     11473     11471     11469     11472     11474
     11471     11469     11472     11478     11472     11478     11475     11476
     11472     11478     11475     11477     11472     11478     11475     11479
     11473     11472     11478     11475     11474     11472     11478     11475
     11475     11479     11480     11481     11475     11479     11480     11482
     11475     11479     11480     11483     11476     11475     11479     11480
     11477     11475     11479     11480     11478     11475     11479     11480
     11479     11480     11483     11484     11479     11480     11483     11485
     11479     11480     11483     11491     11480     11483     11485     11486
     11480     11483     11491     11492     11480     11483     11491     11493
     11480     11483     11491     11494     11481     11480     11483     11484
     11481     11480     11483     11485     11481     11480     11483     11491
     11482     11480     11483     11484     11482     11480     11483     11485
     11482     11480     11483     11491     11483     11485     11486     11487
     11483     11485     11486     11488     11483     11491     11494     11495
     11484     11483     11485     11486     11484     11483     11491     11492
     11484     11483     11491     11493     11484     11483     11491     11494
     11485     11483     11491     11492     11485     11483     11491     11493
     11485     11483     11491     11494     11485     11486     11488     11489
     11485     11486     11488     11490     11485     11486     11488     11500
     11486     11485     11483     11491     11486     11488     11500     11501
     11486     11488     11500     11502     11486     11488     11500     11503
     11487     11486     11488     11489     11487     11486     11488     11490
     11487     11486     11488     11500     11488     11500     11503     11504
     11488     11500     11503     11505     11488     11500     11503     11506
     11489     11488     11500     11501     11489     11488     11500     11502
     11489     11488     11500     11503     11490     11488     11500     11501
     11490     11488     11500     11502     11490     11488     11500     11503
     11491     11494     11495     11496     11491     11494     11495     11497
     11492     11491     11494     11495     11493     11491     11494     11495
     11494     11495     11497     11498     11494     11495     11497     11499
     11494     11495     11497     11547     11495     11497     11547     11548
     11495     11497     11547     11549     11495     11497     11547     11550
     11496     11495     11497     11498     11496     11495     11497     11499
     11496     11495     11497     11547     11497     11547     11550     11551
     11497     11547     11550     11552     11497     11547     11550     11553
     11498     11497     11547     11548     11498     11497     11547     11549
     11498     11497     11547     11550     11499     11497     11547     11548
     11499     11497     11547     11549     11499     11497     11547     11550
     11500     11503     11506     11507     11500     11503     11506     11508
     11500     11503     11506     11509     11501     11500     11503     11504
     11501     11500     11503     11505     11501     11500     11503     11506
     11502     11500     11503     11504     11502     11500     11503     11505
     11502     11500     11503     11506     11503     11506     11509     11510
     11503     11506     11509     11511     11503     11506     11509     11512
     11504     11503     11506     11507     11504     11503     11506     11508
     11504     11503     11506     11509     11505     11503     11506     11507
     11505     11503     11506     11508     11505     11503     11506     11509
     11506     11509     11512     11513     11506     11509     11512     11514
     11506     11509     11512     11515     11507     11506     11509     11510
     11507     11506     11509     11511     11507     11506     11509     11512
     11508     11506     11509     11510     11508     11506     11509     11511
     11508     11506     11509     11512     11509     11512     11515     11516
     11509     11512     11515     11517     11509     11512     11515     11518
     11510     11509     11512     11513     11510     11509     11512     11514
     11510     11509     11512     11515     11511     11509     11512     11513
     11511     11509     11512     11514     11511     11509     11512     11515
     11512     11515     11518     11519     11512     11515     11518     11520
     11513     11512     11515     11516     11513     11512     11515     11517
     11513     11512     11515     11518     11514     11512     11515     11516
     11514     11512     11515     11517     11514     11512     11515     11518
     11515     11518     11520     11521     11515     11518     11520     11522
     11516     11515     11518     11519     11516     11515     11518     11520
     11517     11515     11518     11519     11517     11515     11518     11520
     11518     11520     11522     11523     11518     11520     11522     11524
     11518     11520     11522     11525     11519     11518     11520     11521
     11519     11518     11520     11522     11520     11522     11525     11526
     11520     11522     11525     11527     11520     11522     11525     11528
     11521     11520     11522     11523     11521     11520     11522     11524
     11521     11520     11522     11525     11522     11525     11528     11529
     11522     11525     11528     11530     11522     11525     11528     11531
     11523     11522     11525     11526     11523     11522     11525     11527
     11523     11522     11525     11528     11524     11522     11525     11526
     11524     11522     11525     11527     11524     11522     11525     11528
     11525     11528     11531     11532     11525     11528     11531     11533
     11525     11528     11531     11534     11526     11525     11528     11529
     11526     11525     11528     11530     11526     11525     11528     11531
     11527     11525     11528     11529     11527     11525     11528     11530
     11527     11525     11528     11531     11528     11531     11534     11535
     11528     11531     11534     11536     11528     11531     11534     11537
     11529     11528     11531     11532     11529     11528     11531     11533
     11529     11528     11531     11534     11530     11528     11531     11532
     11530     11528     11531     11533     11530     11528     11531     11534
     11531     11534     11537     11538     11531     11534     11537     11539
     11531     11534     11537     11540     11532     11531     11534     11535
     11532     11531     11534     11536     11532     11531     11534     11537
     11533     11531     11534     11535     11533     11531     11534     11536
     11533     11531     11534     11537     11534     11537     11540     11541
     11534     11537     11540     11542     11534     11537     11540     11543
     11535     11534     11537     11538     11535     11534     11537     11539
     11535     11534     11537     11540     11536     11534     11537     11538
     11536     11534     11537     11539     11536     11534     11537     11540
     11537     11540     11543     11544     11537     11540     11543     11545
     11537     11540     11543     11546     11538     11537     11540     11541
     11538     11537     11540     11542     11538     11537     11540     11543
     11539     11537     11540     11541     11539     11537     11540     11542
     11539     11537     11540     11543     11541     11540     11543     11544
     11541     11540     11543     11545     11541     11540     11543     11546
     11542     11540     11543     11544     11542     11540     11543     11545
     11542     11540     11543     11546     11547     11550     11553     11554
     11547     11550     11553     11555     11547     11550     11553     11556
     11548     11547     11550     11551     11548     11547     11550     11552
     11548     11547     11550     11553     11549     11547     11550     11551
     11549     11547     11550     11552     11549     11547     11550     11553
     11550     11553     11556     11557     11550     11553     11556     11558
     11550     11553     11556     11559     11551     11550     11553     11554
     11551     11550     11553     11555     11551     11550     11553     11556
     11552     11550     11553     11554     11552     11550     11553     11555
     11552     11550     11553     11556     11553     11556     11559     11560
     11553     11556     11559     11561     11553     11556     11559     11562
     11554     11553     11556     11557     11554     11553     11556     11558
     11554     11553     11556     11559     11555     11553     11556     11557
     11555     11553     11556     11558     11555     11553     11556     11559
     11556     11559     11562     11563     11556     11559     11562     11564
     11556     11559     11562     11565     11557     11556     11559     11560
     11557     11556     11559     11561     11557     11556     11559     11562
     11558     11556     11559     11560     11558     11556     11559     11561
     11558     11556     11559     11562     11559     11562     11565     11566
     11559     11562     11565     11567     11559     11562     11565     11568
     11560     11559     11562     11563     11560     11559     11562     11564
     11560     11559     11562     11565     11561     11559     11562     11563
     11561     11559     11562     11564     11561     11559     11562     11565
     11562     11565     11568     11569     11562     11565     11568     11570
     11562     11565     11568     11571     11563     11562     11565     11566
     11563     11562     11565     11567     11563     11562     11565     11568
     11564     11562     11565     11566     11564     11562     11565     11567
     11564     11562     11565     11568     11565     11568     11571     11572
     11565     11568     11571     11573     11565     11568     11571     11574
     11566     11565     11568     11569     11566     11565     11568     11570
     11566     11565     11568     11571     11567     11565     11568     11569
     11567     11565     11568     11570     11567     11565     11568     11571
     11568     11571     11574     11575     11568     11571     11574     11576
     11568     11571     11574     11577     11569     11568     11571     11572
     11569     11568     11571     11573     11569     11568     11571     11574
     11570     11568     11571     11572     11570     11568     11571     11573
     11570     11568     11571     11574     11571     11574     11577     11578
     11571     11574     11577     11579     11571     11574     11577     11580
     11572     11571     11574     11575     11572     11571     11574     11576
     11572     11571     11574     11577     11573     11571     11574     11575
     11573     11571     11574     11576     11573     11571     11574     11577
     11574     11577     11580     11581     11574     11577     11580     11582
     11574     11577     11580     11583     11575     11574     11577     11578
     11575     11574     11577     11579     11575     11574     11577     11580
     11576     11574     11577     11578     11576     11574     11577     11579
     11576     11574     11577     11580     11577     11580     11583     11584
     11577     11580     11583     11585     11577     11580     11583     11586
     11578     11577     11580     11581     11578     11577     11580     11582
     11578     11577     11580     11583     11579     11577     11580     11581
     11579     11577     11580     11582     11579     11577     11580     11583
     11580     11583     11586     11587     11580     11583     11586     11588
     11580     11583     11586     11589     11581     11580     11583     11584
     11581     11580     11583     11585     11581     11580     11583     11586
     11582     11580     11583     11584     11582     11580     11583     11585
     11582     11580     11583     11586     11583     11586     11589     11590
     11583     11586     11589     11591     11583     11586     11589     11592
     11584     11583     11586     11587     11584     11583     11586     11588
     11584     11583     11586     11589     11585     11583     11586     11587
     11585     11583     11586     11588     11585     11583     11586     11589
     11586     11589     11592     11593     11586     11589     11592     11594
     11586     11589     11592     11595     11587     11586     11589     11590
     11587     11586     11589     11591     11587     11586     11589     11592
     11588     11586     11589     11590     11588     11586     11589     11591
     11588     11586     11589     11592     11590     11589     11592     11593
     11590     11589     11592     11594     11590     11589     11592     11595
     11591     11589     11592     11593     11591     11589     11592     11594
     11591     11589     11592     11595     11596     11600     11603     11604
     11596     11600     11603     11634     11596     11642     11639     11634
     11596     11642     11639     11640     11596     11642     11639     11641
     11597     11596     11598     11599     11597     11596     11600     11601
     11597     11596     11600     11602     11597     11596     11600     11603
     11597     11596     11642     11639     11597     11596     11642     11643
     11597     11596     11642     11644     11598     11596     11600     11601
     11598     11596     11600     11602     11598     11596     11600     11603
     11598     11596     11642     11639     11598     11596     11642     11643
     11598     11596     11642     11644     11599     11598     11596     11600
     11599     11598     11596     11642     11600     11596     11642     11639
     11600     11596     11642     11643     11600     11596     11642     11644
     11600     11603     11604     11605     11600     11603     11604     11606
     11600     11603     11634     11632     11600     11603     11634     11635
     11600     11603     11634     11639     11601     11600     11596     11642
     11601     11600     11603     11604     11601     11600     11603     11634
     11602     11600     11596     11642     11602     11600     11603     11604
     11602     11600     11603     11634     11603     11600     11596     11642
     11603     11604     11606     11607     11603     11604     11606     11608
     11603     11604     11606     11609     11603     11634     11632     11609
     11603     11634     11632     11629     11603     11634     11632     11633
     11603     11634     11635     11636     11603     11634     11635     11637
     11603     11634     11635     11638     11603     11634     11639     11640
     11603     11634     11639     11641     11603     11634     11639     11642
     11604     11603     11634     11632     11604     11603     11634     11635
     11604     11603     11634     11639     11604     11606     11609     11610
     11604     11606     11609     11611     11604     11606     11609     11632
     11605     11604     11603     11634     11605     11604     11606     11607
     11605     11604     11606     11608     11605     11604     11606     11609
     11606     11604     11603     11634     11606     11609     11611     11612
     11606     11609     11611     11613     11606     11609     11611     11621
     11606     11609     11632     11629     11606     11609     11632     11633
     11606     11609     11632     11634     11607     11606     11609     11610
     11607     11606     11609     11611     11607     11606     11609     11632
     11608     11606     11609     11610     11608     11606     11609     11611
     11608     11606     11609     11632     11609     11611     11613     11614
     11609     11611     11613     11615     11609     11611     11613     11616
     11609     11611     11621     11619     11609     11611     11621     11622
     11609     11611     11621     11626     11609     11632     11629     11626
     11609     11632     11629     11630     11609     11632     11629     11631
     11609     11632     11634     11635     11609     11632     11634     11639
     11610     11609     11611     11612     11610     11609     11611     11613
     11610     11609     11611     11621     11610     11609     11632     11629
     11610     11609     11632     11633     11610     11609     11632     11634
     11611     11609     11632     11629     11611     11609     11632     11633
     11611     11609     11632     11634     11611     11613     11616     11617
     11611     11613     11616     11618     11611     11613     11616     11619
     11611     11621     11619     11616     11611     11621     11619     11620
     11611     11621     11619     11645     11611     11621     11622     11623
     11611     11621     11622     11624     11611     11621     11622     11625
     11611     11621     11626     11627     11611     11621     11626     11628
     11611     11621     11626     11629     11612     11611     11609     11632
     11612     11611     11613     11614     11612     11611     11613     11615
     11612     11611     11613     11616     11612     11611     11621     11619
     11612     11611     11621     11622     11612     11611     11621     11626
     11613     11611     11609     11632     11613     11611     11621     11619
     11613     11611     11621     11622     11613     11611     11621     11626
     11613     11616     11619     11620     11613     11616     11619     11621
     11613     11616     11619     11645     11614     11613     11611     11621
     11614     11613     11616     11617     11614     11613     11616     11618
     11614     11613     11616     11619     11615     11613     11611     11621
     11615     11613     11616     11617     11615     11613     11616     11618
     11615     11613     11616     11619     11616     11613     11611     11621
     11616     11619     11621     11622     11616     11619     11621     11626
     11616     11619     11645     11646     11616     11619     11645     11647
     11616     11619     11645     11651     11617     11616     11619     11620
     11617     11616     11619     11621     11617     11616     11619     11645
     11618     11616     11619     11620     11618     11616     11619     11621
     11618     11616     11619     11645     11619     11621     11622     11623
     11619     11621     11622     11624     11619     11621     11622     11625
     11619     11621     11626     11627     11619     11621     11626     11628
     11619     11621     11626     11629     11619     11645     11647     11648
     11619     11645     11647     11649     11619     11645     11647     11650
     11619     11645     11651     11652     11619     11645     11651     11653
     11619     11645     11651     11654     11620     11619     11621     11622
     11620     11619     11621     11626     11620     11619     11645     11646
     11620     11619     11645     11647     11620     11619     11645     11651
     11621     11611     11609     11632     11621     11619     11645     11646
     11621     11619     11645     11647     11621     11619     11645     11651
     11621     11626     11629     11630     11621     11626     11629     11631
     11621     11626     11629     11632     11622     11621     11619     11645
     11622     11621     11626     11627     11622     11621     11626     11628
     11622     11621     11626     11629     11623     11622     11621     11626
     11624     11622     11621     11626     11625     11622     11621     11626
     11626     11621     11619     11645     11626     11629     11632     11633
     11626     11629     11632     11634     11627     11626     11629     11630
     11627     11626     11629     11631     11627     11626     11629     11632
     11628     11626     11629     11630     11628     11626     11629     11631
     11628     11626     11629     11632     11629     11632     11634     11635
     11629     11632     11634     11639     11630     11629     11632     11633
     11630     11629     11632     11634     11631     11629     11632     11633
     11631     11629     11632     11634     11632     11634     11635     11636
     11632     11634     11635     11637     11632     11634     11635     11638
     11632     11634     11639     11640     11632     11634     11639     11641
     11632     11634     11639     11642     11633     11632     11634     11635
     11633     11632     11634     11639     11634     11639     11642     11643
     11634     11639     11642     11644     11635     11634     11639     11640
     11635     11634     11639     11641     11635     11634     11639     11642
     11636     11635     11634     11639     11637     11635     11634     11639
     11638     11635     11634     11639     11640     11639     11642     11643
     11640     11639     11642     11644     11641     11639     11642     11643
     11641     11639     11642     11644     11645     11651     11654     11655
     11645     11651     11654     11656     11645     11651     11654     11657
     11646     11645     11647     11648     11646     11645     11647     11649
     11646     11645     11647     11650     11646     11645     11651     11652
     11646     11645     11651     11653     11646     11645     11651     11654
     11647     11645     11651     11652     11647     11645     11651     11653
     11647     11645     11651     11654     11648     11647     11645     11651
     11649     11647     11645     11651     11650     11647     11645     11651
     11651     11654     11657     11658     11651     11654     11657     11659
     11651     11654     11657     11660     11652     11651     11654     11655
     11652     11651     11654     11656     11652     11651     11654     11657
     11653     11651     11654     11655     11653     11651     11654     11656
     11653     11651     11654     11657     11654     11657     11660     11661
     11654     11657     11660     11662     11654     11657     11660     11666
     11655     11654     11657     11658     11655     11654     11657     11659
     11655     11654     11657     11660     11656     11654     11657     11658
     11656     11654     11657     11659     11656     11654     11657     11660
     11657     11660     11662     11663     11657     11660     11662     11664
     11657     11660     11662     11665     11657     11660     11666     11667
     11657     11660     11666     11668     11657     11660     11666     11669
     11658     11657     11660     11661     11658     11657     11660     11662
     11658     11657     11660     11666     11659     11657     11660     11661
     11659     11657     11660     11662     11659     11657     11660     11666
     11661     11660     11662     11663     11661     11660     11662     11664
     11661     11660     11662     11665     11661     11660     11666     11667
     11661     11660     11666     11668     11661     11660     11666     11669
     11662     11660     11666     11667     11662     11660     11666     11668
     11662     11660     11666     11669     11663     11662     11660     11666
     11664     11662     11660     11666     11665     11662     11660     11666
     11670     11674     11677     11678     11670     11674     11677     11708
     11670     11716     11713     11708     11670     11716     11713     11714
     11670     11716     11713     11715     11671     11670     11672     11673
     11671     11670     11674     11675     11671     11670     11674     11676
     11671     11670     11674     11677     11671     11670     11716     11713
     11671     11670     11716     11717     11671     11670     11716     11718
     11672     11670     11674     11675     11672     11670     11674     11676
     11672     11670     11674     11677     11672     11670     11716     11713
     11672     11670     11716     11717     11672     11670     11716     11718
     11673     11672     11670     11674     11673     11672     11670     11716
     11674     11670     11716     11713     11674     11670     11716     11717
     11674     11670     11716     11718     11674     11677     11678     11679
     11674     11677     11678     11680     11674     11677     11708     11706
     11674     11677     11708     11709     11674     11677     11708     11713
     11675     11674     11670     11716     11675     11674     11677     11678
     11675     11674     11677     11708     11676     11674     11670     11716
     11676     11674     11677     11678     11676     11674     11677     11708
     11677     11674     11670     11716     11677     11678     11680     11681
     11677     11678     11680     11682     11677     11678     11680     11683
     11677     11708     11706     11683     11677     11708     11706     11703
     11677     11708     11706     11707     11677     11708     11709     11710
     11677     11708     11709     11711     11677     11708     11709     11712
     11677     11708     11713     11714     11677     11708     11713     11715
     11677     11708     11713     11716     11678     11677     11708     11706
     11678     11677     11708     11709     11678     11677     11708     11713
     11678     11680     11683     11684     11678     11680     11683     11685
     11678     11680     11683     11706     11679     11678     11677     11708
     11679     11678     11680     11681     11679     11678     11680     11682
     11679     11678     11680     11683     11680     11678     11677     11708
     11680     11683     11685     11686     11680     11683     11685     11687
     11680     11683     11685     11695     11680     11683     11706     11703
     11680     11683     11706     11707     11680     11683     11706     11708
     11681     11680     11683     11684     11681     11680     11683     11685
     11681     11680     11683     11706     11682     11680     11683     11684
     11682     11680     11683     11685     11682     11680     11683     11706
     11683     11685     11687     11688     11683     11685     11687     11689
     11683     11685     11687     11690     11683     11685     11695     11693
     11683     11685     11695     11696     11683     11685     11695     11700
     11683     11706     11703     11700     11683     11706     11703     11704
     11683     11706     11703     11705     11683     11706     11708     11709
     11683     11706     11708     11713     11684     11683     11685     11686
     11684     11683     11685     11687     11684     11683     11685     11695
     11684     11683     11706     11703     11684     11683     11706     11707
     11684     11683     11706     11708     11685     11683     11706     11703
     11685     11683     11706     11707     11685     11683     11706     11708
     11685     11687     11690     11691     11685     11687     11690     11692
     11685     11687     11690     11693     11685     11695     11693     11690
     11685     11695     11693     11694     11685     11695     11693     11719
     11685     11695     11696     11697     11685     11695     11696     11698
     11685     11695     11696     11699     11685     11695     11700     11701
     11685     11695     11700     11702     11685     11695     11700     11703
     11686     11685     11683     11706     11686     11685     11687     11688
     11686     11685     11687     11689     11686     11685     11687     11690
     11686     11685     11695     11693     11686     11685     11695     11696
     11686     11685     11695     11700     11687     11685     11683     11706
     11687     11685     11695     11693     11687     11685     11695     11696
     11687     11685     11695     11700     11687     11690     11693     11694
     11687     11690     11693     11695     11687     11690     11693     11719
     11688     11687     11685     11695     11688     11687     11690     11691
     11688     11687     11690     11692     11688     11687     11690     11693
     11689     11687     11685     11695     11689     11687     11690     11691
     11689     11687     11690     11692     11689     11687     11690     11693
     11690     11687     11685     11695     11690     11693     11695     11696
     11690     11693     11695     11700     11690     11693     11719     11720
     11690     11693     11719     11721     11690     11693     11719     11725
     11691     11690     11693     11694     11691     11690     11693     11695
     11691     11690     11693     11719     11692     11690     11693     11694
     11692     11690     11693     11695     11692     11690     11693     11719
     11693     11695     11696     11697     11693     11695     11696     11698
     11693     11695     11696     11699     11693     11695     11700     11701
     11693     11695     11700     11702     11693     11695     11700     11703
     11693     11719     11721     11722     11693     11719     11721     11723
     11693     11719     11721     11724     11693     11719     11725     11726
     11693     11719     11725     11727     11693     11719     11725     11728
     11694     11693     11695     11696     11694     11693     11695     11700
     11694     11693     11719     11720     11694     11693     11719     11721
     11694     11693     11719     11725     11695     11685     11683     11706
     11695     11693     11719     11720     11695     11693     11719     11721
     11695     11693     11719     11725     11695     11700     11703     11704
     11695     11700     11703     11705     11695     11700     11703     11706
     11696     11695     11693     11719     11696     11695     11700     11701
     11696     11695     11700     11702     11696     11695     11700     11703
     11697     11696     11695     11700     11698     11696     11695     11700
     11699     11696     11695     11700     11700     11695     11693     11719
     11700     11703     11706     11707     11700     11703     11706     11708
     11701     11700     11703     11704     11701     11700     11703     11705
     11701     11700     11703     11706     11702     11700     11703     11704
     11702     11700     11703     11705     11702     11700     11703     11706
     11703     11706     11708     11709     11703     11706     11708     11713
     11704     11703     11706     11707     11704     11703     11706     11708
     11705     11703     11706     11707     11705     11703     11706     11708
     11706     11708     11709     11710     11706     11708     11709     11711
     11706     11708     11709     11712     11706     11708     11713     11714
     11706     11708     11713     11715     11706     11708     11713     11716
     11707     11706     11708     11709     11707     11706     11708     11713
     11708     11713     11716     11717     11708     11713     11716     11718
     11709     11708     11713     11714     11709     11708     11713     11715
     11709     11708     11713     11716     11710     11709     11708     11713
     11711     11709     11708     11713     11712     11709     11708     11713
     11714     11713     11716     11717     11714     11713     11716     11718
     11715     11713     11716     11717     11715     11713     11716     11718
     11719     11725     11728     11729     11719     11725     11728     11730
     11719     11725     11728     11731     11720     11719     11721     11722
     11720     11719     11721     11723     11720     11719     11721     11724
     11720     11719     11725     11726     11720     11719     11725     11727
     11720     11719     11725     11728     11721     11719     11725     11726
     11721     11719     11725     11727     11721     11719     11725     11728
     11722     11721     11719     11725     11723     11721     11719     11725
     11724     11721     11719     11725     11725     11728     11731     11732
     11725     11728     11731     11733     11725     11728     11731     11734
     11726     11725     11728     11729     11726     11725     11728     11730
     11726     11725     11728     11731     11727     11725     11728     11729
     11727     11725     11728     11730     11727     11725     11728     11731
     11728     11731     11734     11735     11728     11731     11734     11736
     11728     11731     11734     11740     11729     11728     11731     11732
     11729     11728     11731     11733     11729     11728     11731     11734
     11730     11728     11731     11732     11730     11728     11731     11733
     11730     11728     11731     11734     11731     11734     11736     11737
     11731     11734     11736     11738     11731     11734     11736     11739
     11731     11734     11740     11741     11731     11734     11740     11742
     11731     11734     11740     11743     11732     11731     11734     11735
     11732     11731     11734     11736     11732     11731     11734     11740
     11733     11731     11734     11735     11733     11731     11734     11736
     11733     11731     11734     11740     11735     11734     11736     11737
     11735     11734     11736     11738     11735     11734     11736     11739
     11735     11734     11740     11741     11735     11734     11740     11742
     11735     11734     11740     11743     11736     11734     11740     11741
     11736     11734     11740     11742     11736     11734     11740     11743
     11737     11736     11734     11740     11738     11736     11734     11740
     11739     11736     11734     11740     11744     11748     11750     11751
     11744     11748     11752     11753     11744     11748     11752     11754
     11744     11748     11752     11756     11744     11764     11760     11756
     11744     11764     11760     11761     11744     11764     11760     11762
     11744     11764     11769     11766     11745     11744     11746     11747
     11745     11744     11748     11749     11745     11744     11748     11750
     11745     11744     11748     11752     11745     11744     11764     11760
     11745     11744     11764     11765     11745     11744     11764     11769
     11746     11744     11748     11749     11746     11744     11748     11750
     11746     11744     11748     11752     11746     11744     11764     11760
     11746     11744     11764     11765     11746     11744     11764     11769
     11747     11746     11744     11748     11747     11746     11744     11764
     11748     11744     11764     11760     11748     11744     11764     11765
     11748     11744     11764     11769     11748     11752     11754     11755
     11748     11752     11756     11757     11748     11752     11756     11758
     11748     11752     11756     11760     11749     11748     11744     11764
     11749     11748     11750     11751     11749     11748     11752     11753
     11749     11748     11752     11754     11749     11748     11752     11756
     11750     11748     11744     11764     11750     11748     11752     11753
     11750     11748     11752     11754     11750     11748     11752     11756
     11751     11750     11748     11752     11752     11748     11744     11764
     11752     11756     11758     11759     11752     11756     11760     11761
     11752     11756     11760     11762     11752     11756     11760     11764
     11753     11752     11754     11755     11753     11752     11756     11757
     11753     11752     11756     11758     11753     11752     11756     11760
     11754     11752     11756     11757     11754     11752     11756     11758
     11754     11752     11756     11760     11755     11754     11752     11756
     11756     11760     11762     11763     11756     11760     11764     11765
     11756     11760     11764     11769     11757     11756     11758     11759
     11757     11756     11760     11761     11757     11756     11760     11762
     11757     11756     11760     11764     11758     11756     11760     11761
     11758     11756     11760     11762     11758     11756     11760     11764
     11759     11758     11756     11760     11760     11764     11769     11766
     11761     11760     11762     11763     11761     11760     11764     11765
     11761     11760     11764     11769     11762     11760     11764     11765
     11762     11760     11764     11769     11763     11762     11760     11764
     11764     11769     11766     11767     11764     11769     11766     11768
     11764     11769     11766     11770     11765     11764     11769     11766
     11766     11770     11771     11772     11766     11770     11771     11773
     11766     11770     11771     11774     11767     11766     11770     11771
     11768     11766     11770     11771     11769     11766     11770     11771
     11770     11771     11774     11775     11770     11771     11774     11776
     11770     11771     11774     11782     11771     11774     11776     11777
     11771     11774     11782     11783     11771     11774     11782     11784
     11771     11774     11782     11785     11772     11771     11774     11775
     11772     11771     11774     11776     11772     11771     11774     11782
     11773     11771     11774     11775     11773     11771     11774     11776
     11773     11771     11774     11782     11774     11776     11777     11778
     11774     11776     11777     11779     11774     11782     11785     11786
     11775     11774     11776     11777     11775     11774     11782     11783
     11775     11774     11782     11784     11775     11774     11782     11785
     11776     11774     11782     11783     11776     11774     11782     11784
     11776     11774     11782     11785     11776     11777     11779     11780
     11776     11777     11779     11781     11776     11777     11779     11791
     11777     11776     11774     11782     11777     11779     11791     11792
     11777     11779     11791     11793     11777     11779     11791     11794
     11778     11777     11779     11780     11778     11777     11779     11781
     11778     11777     11779     11791     11779     11791     11794     11795
     11779     11791     11794     11796     11779     11791     11794     11797
     11780     11779     11791     11792     11780     11779     11791     11793
     11780     11779     11791     11794     11781     11779     11791     11792
     11781     11779     11791     11793     11781     11779     11791     11794
     11782     11785     11786     11787     11782     11785     11786     11788
     11783     11782     11785     11786     11784     11782     11785     11786
     11785     11786     11788     11789     11785     11786     11788     11790
     11785     11786     11788     11838     11786     11788     11838     11839
     11786     11788     11838     11840     11786     11788     11838     11841
     11787     11786     11788     11789     11787     11786     11788     11790
     11787     11786     11788     11838     11788     11838     11841     11842
     11788     11838     11841     11843     11788     11838     11841     11844
     11789     11788     11838     11839     11789     11788     11838     11840
     11789     11788     11838     11841     11790     11788     11838     11839
     11790     11788     11838     11840     11790     11788     11838     11841
     11791     11794     11797     11798     11791     11794     11797     11799
     11792     11791     11794     11795     11792     11791     11794     11796
     11792     11791     11794     11797     11793     11791     11794     11795
     11793     11791     11794     11796     11793     11791     11794     11797
     11794     11797     11799     11800     11794     11797     11799     11801
     11795     11794     11797     11798     11795     11794     11797     11799
     11796     11794     11797     11798     11796     11794     11797     11799
     11797     11799     11801     11802     11797     11799     11801     11803
     11797     11799     11801     11804     11798     11797     11799     11800
     11798     11797     11799     11801     11799     11801     11804     11805
     11799     11801     11804     11806     11800     11799     11801     11802
     11800     11799     11801     11803     11800     11799     11801     11804
     11801     11804     11806     11807     11801     11804     11806     11808
     11802     11801     11804     11805     11802     11801     11804     11806
     11803     11801     11804     11805     11803     11801     11804     11806
     11804     11806     11808     11809     11804     11806     11808     11810
     11804     11806     11808     11811     11805     11804     11806     11807
     11805     11804     11806     11808     11806     11808     11811     11812
     11806     11808     11811     11813     11807     11806     11808     11809
     11807     11806     11808     11810     11807     11806     11808     11811
     11808     11811     11813     11814     11808     11811     11813     11815
     11809     11808     11811     11812     11809     11808     11811     11813
     11810     11808     11811     11812     11810     11808     11811     11813
     11811     11813     11815     11816     11811     11813     11815     11817
     11811     11813     11815     11818     11812     11811     11813     11814
     11812     11811     11813     11815     11813     11815     11818     11819
     11813     11815     11818     11820     11814     11813     11815     11816
     11814     11813     11815     11817     11814     11813     11815     11818
     11815     11818     11820     11821     11815     11818     11820     11822
     11816     11815     11818     11819     11816     11815     11818     11820
     11817     11815     11818     11819     11817     11815     11818     11820
     11818     11820     11822     11823     11818     11820     11822     11824
     11818     11820     11822     11825     11819     11818     11820     11821
     11819     11818     11820     11822     11820     11822     11825     11826
     11820     11822     11825     11827     11820     11822     11825     11828
     11821     11820     11822     11823     11821     11820     11822     11824
     11821     11820     11822     11825     11822     11825     11828     11829
     11822     11825     11828     11830     11822     11825     11828     11831
     11823     11822     11825     11826     11823     11822     11825     11827
     11823     11822     11825     11828     11824     11822     11825     11826
     11824     11822     11825     11827     11824     11822     11825     11828
     11825     11828     11831     11832     11825     11828     11831     11833
     11825     11828     11831     11834     11826     11825     11828     11829
     11826     11825     11828     11830     11826     11825     11828     11831
     11827     11825     11828     11829     11827     11825     11828     11830
     11827     11825     11828     11831     11828     11831     11834     11835
     11828     11831     11834     11836     11828     11831     11834     11837
     11829     11828     11831     11832     11829     11828     11831     11833
     11829     11828     11831     11834     11830     11828     11831     11832
     11830     11828     11831     11833     11830     11828     11831     11834
     11832     11831     11834     11835     11832     11831     11834     11836
     11832     11831     11834     11837     11833     11831     11834     11835
     11833     11831     11834     11836     11833     11831     11834     11837
     11838     11841     11844     11845     11838     11841     11844     11846
     11838     11841     11844     11847     11839     11838     11841     11842
     11839     11838     11841     11843     11839     11838     11841     11844
     11840     11838     11841     11842     11840     11838     11841     11843
     11840     11838     11841     11844     11841     11844     11847     11848
     11841     11844     11847     11849     11841     11844     11847     11850
     11842     11841     11844     11845     11842     11841     11844     11846
     11842     11841     11844     11847     11843     11841     11844     11845
     11843     11841     11844     11846     11843     11841     11844     11847
     11844     11847     11850     11851     11844     11847     11850     11852
     11844     11847     11850     11853     11845     11844     11847     11848
     11845     11844     11847     11849     11845     11844     11847     11850
     11846     11844     11847     11848     11846     11844     11847     11849
     11846     11844     11847     11850     11847     11850     11853     11854
     11847     11850     11853     11855     11847     11850     11853     11856
     11848     11847     11850     11851     11848     11847     11850     11852
     11848     11847     11850     11853     11849     11847     11850     11851
     11849     11847     11850     11852     11849     11847     11850     11853
     11850     11853     11856     11857     11850     11853     11856     11858
     11850     11853     11856     11859     11851     11850     11853     11854
     11851     11850     11853     11855     11851     11850     11853     11856
     11852     11850     11853     11854     11852     11850     11853     11855
     11852     11850     11853     11856     11853     11856     11859     11860
     11853     11856     11859     11861     11853     11856     11859     11862
     11854     11853     11856     11857     11854     11853     11856     11858
     11854     11853     11856     11859     11855     11853     11856     11857
     11855     11853     11856     11858     11855     11853     11856     11859
     11856     11859     11862     11863     11856     11859     11862     11864
     11856     11859     11862     11865     11857     11856     11859     11860
     11857     11856     11859     11861     11857     11856     11859     11862
     11858     11856     11859     11860     11858     11856     11859     11861
     11858     11856     11859     11862     11859     11862     11865     11866
     11859     11862     11865     11867     11859     11862     11865     11868
     11860     11859     11862     11863     11860     11859     11862     11864
     11860     11859     11862     11865     11861     11859     11862     11863
     11861     11859     11862     11864     11861     11859     11862     11865
     11862     11865     11868     11869     11862     11865     11868     11870
     11862     11865     11868     11871     11863     11862     11865     11866
     11863     11862     11865     11867     11863     11862     11865     11868
     11864     11862     11865     11866     11864     11862     11865     11867
     11864     11862     11865     11868     11865     11868     11871     11872
     11865     11868     11871     11873     11865     11868     11871     11874
     11866     11865     11868     11869     11866     11865     11868     11870
     11866     11865     11868     11871     11867     11865     11868     11869
     11867     11865     11868     11870     11867     11865     11868     11871
     11868     11871     11874     11875     11868     11871     11874     11876
     11868     11871     11874     11877     11869     11868     11871     11872
     11869     11868     11871     11873     11869     11868     11871     11874
     11870     11868     11871     11872     11870     11868     11871     11873
     11870     11868     11871     11874     11871     11874     11877     11878
     11871     11874     11877     11879     11871     11874     11877     11880
     11872     11871     11874     11875     11872     11871     11874     11876
     11872     11871     11874     11877     11873     11871     11874     11875
     11873     11871     11874     11876     11873     11871     11874     11877
     11874     11877     11880     11881     11874     11877     11880     11882
     11874     11877     11880     11883     11875     11874     11877     11878
     11875     11874     11877     11879     11875     11874     11877     11880
     11876     11874     11877     11878     11876     11874     11877     11879
     11876     11874     11877     11880     11877     11880     11883     11884
     11877     11880     11883     11885     11877     11880     11883     11886
     11878     11877     11880     11881     11878     11877     11880     11882
     11878     11877     11880     11883     11879     11877     11880     11881
     11879     11877     11880     11882     11879     11877     11880     11883
     11881     11880     11883     11884     11881     11880     11883     11885
     11881     11880     11883     11886     11882     11880     11883     11884
     11882     11880     11883     11885     11882     11880     11883     11886
     11887     11891     11893     11894     11887     11891     11893     11895
     11887     11891     11896     11897     11887     11891     11896     11898
     11887     11891     11896     11902     11888     11887     11891     11892
     11888     11887     11891     11893     11888     11887     11891     11896
     11889     11887     11891     11892     11889     11887     11891     11893
     11889     11887     11891     11896     11890     11887     11891     11892
     11890     11887     11891     11893     11890     11887     11891     11896
     11891     11896     11902     11899     11892     11891     11893     11894
     11892     11891     11893     11895     11892     11891     11896     11897
     11892     11891     11896     11898     11892     11891     11896     11902
     11893     11891     11896     11897     11893     11891     11896     11898
     11893     11891     11896     11902     11894     11893     11891     11896
     11895     11893     11891     11896     11896     11902     11899     11900
     11896     11902     11899     11901     11896     11902     11899     11903
     11897     11896     11902     11899     11898     11896     11902     11899
     11899     11903     11904     11905     11899     11903     11904     11906
     11899     11903     11904     11907     11900     11899     11903     11904
     11901     11899     11903     11904     11902     11899     11903     11904
     11903     11904     11907     11908     11903     11904     11907     11909
     11903     11904     11907     11915     11904     11907     11909     11910
     11904     11907     11915     11916     11904     11907     11915     11917
     11904     11907     11915     11918     11905     11904     11907     11908
     11905     11904     11907     11909     11905     11904     11907     11915
     11906     11904     11907     11908     11906     11904     11907     11909
     11906     11904     11907     11915     11907     11909     11910     11911
     11907     11909     11910     11912     11907     11915     11918     11919
     11908     11907     11909     11910     11908     11907     11915     11916
     11908     11907     11915     11917     11908     11907     11915     11918
     11909     11907     11915     11916     11909     11907     11915     11917
     11909     11907     11915     11918     11909     11910     11912     11913
     11909     11910     11912     11914     11909     11910     11912     11924
     11910     11909     11907     11915     11910     11912     11924     11925
     11910     11912     11924     11926     11910     11912     11924     11927
     11911     11910     11912     11913     11911     11910     11912     11914
     11911     11910     11912     11924     11912     11924     11927     11928
     11912     11924     11927     11929     11912     11924     11927     11930
     11913     11912     11924     11925     11913     11912     11924     11926
     11913     11912     11924     11927     11914     11912     11924     11925
     11914     11912     11924     11926     11914     11912     11924     11927
     11915     11918     11919     11920     11915     11918     11919     11921
     11916     11915     11918     11919     11917     11915     11918     11919
     11918     11919     11921     11922     11918     11919     11921     11923
     11918     11919     11921     11971     11919     11921     11971     11972
     11919     11921     11971     11973     11919     11921     11971     11974
     11920     11919     11921     11922     11920     11919     11921     11923
     11920     11919     11921     11971     11921     11971     11974     11975
     11921     11971     11974     11976     11921     11971     11974     11977
     11922     11921     11971     11972     11922     11921     11971     11973
     11922     11921     11971     11974     11923     11921     11971     11972
     11923     11921     11971     11973     11923     11921     11971     11974
     11924     11927     11930     11931     11924     11927     11930     11932
     11925     11924     11927     11928     11925     11924     11927     11929
     11925     11924     11927     11930     11926     11924     11927     11928
     11926     11924     11927     11929     11926     11924     11927     11930
     11927     11930     11932     11933     11927     11930     11932     11934
     11928     11927     11930     11931     11928     11927     11930     11932
     11929     11927     11930     11931     11929     11927     11930     11932
     11930     11932     11934     11935     11930     11932     11934     11936
     11930     11932     11934     11937     11931     11930     11932     11933
     11931     11930     11932     11934     11932     11934     11937     11938
     11932     11934     11937     11939     11933     11932     11934     11935
     11933     11932     11934     11936     11933     11932     11934     11937
     11934     11937     11939     11940     11934     11937     11939     11941
     11935     11934     11937     11938     11935     11934     11937     11939
     11936     11934     11937     11938     11936     11934     11937     11939
     11937     11939     11941     11942     11937     11939     11941     11943
     11937     11939     11941     11944     11938     11937     11939     11940
     11938     11937     11939     11941     11939     11941     11944     11945
     11939     11941     11944     11946     11940     11939     11941     11942
     11940     11939     11941     11943     11940     11939     11941     11944
     11941     11944     11946     11947     11941     11944     11946     11948
     11942     11941     11944     11945     11942     11941     11944     11946
     11943     11941     11944     11945     11943     11941     11944     11946
     11944     11946     11948     11949     11944     11946     11948     11950
     11944     11946     11948     11951     11945     11944     11946     11947
     11945     11944     11946     11948     11946     11948     11951     11952
     11946     11948     11951     11953     11947     11946     11948     11949
     11947     11946     11948     11950     11947     11946     11948     11951
     11948     11951     11953     11954     11948     11951     11953     11955
     11949     11948     11951     11952     11949     11948     11951     11953
     11950     11948     11951     11952     11950     11948     11951     11953
     11951     11953     11955     11956     11951     11953     11955     11957
     11951     11953     11955     11958     11952     11951     11953     11954
     11952     11951     11953     11955     11953     11955     11958     11959
     11953     11955     11958     11960     11953     11955     11958     11961
     11954     11953     11955     11956     11954     11953     11955     11957
     11954     11953     11955     11958     11955     11958     11961     11962
     11955     11958     11961     11963     11955     11958     11961     11964
     11956     11955     11958     11959     11956     11955     11958     11960
     11956     11955     11958     11961     11957     11955     11958     11959
     11957     11955     11958     11960     11957     11955     11958     11961
     11958     11961     11964     11965     11958     11961     11964     11966
     11958     11961     11964     11967     11959     11958     11961     11962
     11959     11958     11961     11963     11959     11958     11961     11964
     11960     11958     11961     11962     11960     11958     11961     11963
     11960     11958     11961     11964     11961     11964     11967     11968
     11961     11964     11967     11969     11961     11964     11967     11970
     11962     11961     11964     11965     11962     11961     11964     11966
     11962     11961     11964     11967     11963     11961     11964     11965
     11963     11961     11964     11966     11963     11961     11964     11967
     11965     11964     11967     11968     11965     11964     11967     11969
     11965     11964     11967     11970     11966     11964     11967     11968
     11966     11964     11967     11969     11966     11964     11967     11970
     11971     11974     11977     11978     11971     11974     11977     11979
     11971     11974     11977     11980     11972     11971     11974     11975
     11972     11971     11974     11976     11972     11971     11974     11977
     11973     11971     11974     11975     11973     11971     11974     11976
     11973     11971     11974     11977     11974     11977     11980     11981
     11974     11977     11980     11982     11974     11977     11980     11983
     11975     11974     11977     11978     11975     11974     11977     11979
     11975     11974     11977     11980     11976     11974     11977     11978
     11976     11974     11977     11979     11976     11974     11977     11980
     11977     11980     11983     11984     11977     11980     11983     11985
     11977     11980     11983     11986     11978     11977     11980     11981
     11978     11977     11980     11982     11978     11977     11980     11983
     11979     11977     11980     11981     11979     11977     11980     11982
     11979     11977     11980     11983     11980     11983     11986     11987
     11980     11983     11986     11988     11980     11983     11986     11989
     11981     11980     11983     11984     11981     11980     11983     11985
     11981     11980     11983     11986     11982     11980     11983     11984
     11982     11980     11983     11985     11982     11980     11983     11986
     11983     11986     11989     11990     11983     11986     11989     11991
     11983     11986     11989     11992     11984     11983     11986     11987
     11984     11983     11986     11988     11984     11983     11986     11989
     11985     11983     11986     11987     11985     11983     11986     11988
     11985     11983     11986     11989     11986     11989     11992     11993
     11986     11989     11992     11994     11986     11989     11992     11995
     11987     11986     11989     11990     11987     11986     11989     11991
     11987     11986     11989     11992     11988     11986     11989     11990
     11988     11986     11989     11991     11988     11986     11989     11992
     11989     11992     11995     11996     11989     11992     11995     11997
     11989     11992     11995     11998     11990     11989     11992     11993
     11990     11989     11992     11994     11990     11989     11992     11995
     11991     11989     11992     11993     11991     11989     11992     11994
     11991     11989     11992     11995     11992     11995     11998     11999
     11992     11995     11998     12000     11992     11995     11998     12001
     11993     11992     11995     11996     11993     11992     11995     11997
     11993     11992     11995     11998     11994     11992     11995     11996
     11994     11992     11995     11997     11994     11992     11995     11998
     11995     11998     12001     12002     11995     11998     12001     12003
     11995     11998     12001     12004     11996     11995     11998     11999
     11996     11995     11998     12000     11996     11995     11998     12001
     11997     11995     11998     11999     11997     11995     11998     12000
     11997     11995     11998     12001     11998     12001     12004     12005
     11998     12001     12004     12006     11998     12001     12004     12007
     11999     11998     12001     12002     11999     11998     12001     12003
     11999     11998     12001     12004     12000     11998     12001     12002
     12000     11998     12001     12003     12000     11998     12001     12004
     12001     12004     12007     12008     12001     12004     12007     12009
     12001     12004     12007     12010     12002     12001     12004     12005
     12002     12001     12004     12006     12002     12001     12004     12007
     12003     12001     12004     12005     12003     12001     12004     12006
     12003     12001     12004     12007     12004     12007     12010     12011
     12004     12007     12010     12012     12004     12007     12010     12013
     12005     12004     12007     12008     12005     12004     12007     12009
     12005     12004     12007     12010     12006     12004     12007     12008
     12006     12004     12007     12009     12006     12004     12007     12010
     12007     12010     12013     12014     12007     12010     12013     12015
     12007     12010     12013     12016     12008     12007     12010     12011
     12008     12007     12010     12012     12008     12007     12010     12013
     12009     12007     12010     12011     12009     12007     12010     12012
     12009     12007     12010     12013     12010     12013     12016     12017
     12010     12013     12016     12018     12010     12013     12016     12019
     12011     12010     12013     12014     12011     12010     12013     12015
     12011     12010     12013     12016     12012     12010     12013     12014
     12012     12010     12013     12015     12012     12010     12013     12016
     12014     12013     12016     12017     12014     12013     12016     12018
     12014     12013     12016     12019     12015     12013     12016     12017
     12015     12013     12016     12018     12015     12013     12016     12019
     12020     12033     12036     12037     12020     12033     12036     12038
     12020     12033     12036     12043     12021     12020     12025     12026
     12021     12020     12025     12027     12021     12020     12025     12028
     12021     12020     12029     12030     12021     12020     12029     12031
     12021     12020     12029     12032     12021     12020     12033     12034
     12021     12020     12033     12035     12021     12020     12033     12036
     12022     12021     12020     12025     12022     12021     12020     12029
     12022     12021     12020     12033     12023     12021     12020     12025
     12023     12021     12020     12029     12023     12021     12020     12033
     12024     12021     12020     12025     12024     12021     12020     12029
     12024     12021     12020     12033     12025     12020     12029     12030
     12025     12020     12029     12031     12025     12020     12029     12032
     12025     12020     12033     12034     12025     12020     12033     12035
     12025     12020     12033     12036     12026     12025     12020     12029
     12026     12025     12020     12033     12027     12025     12020     12029
     12027     12025     12020     12033     12028     12025     12020     12029
     12028     12025     12020     12033     12029     12020     12033     12034
     12029     12020     12033     12035     12029     12020     12033     12036
     12030     12029     12020     12033     12031     12029     12020     12033
     12032     12029     12020     12033     12033     12036     12043     12039
     12034     12033     12036     12037     12034     12033     12036     12038
     12034     12033     12036     12043     12035     12033     12036     12037
     12035     12033     12036     12038     12035     12033     12036     12043
     12036     12043     12039     12040     12036     12043     12039     12041
     12036     12043     12039     12042     12037     12036     12043     12039
     12038     12036     12043     12039     12039     12042     12044     12045
     12039     12042     12044     12046     12039     12042     12044     12049
     12040     12039     12042     12044     12041     12039     12042     12044
     12042     12044     12049     12047     12042     12044     12049     12050
     12042     12044     12049     12051     12043     12039     12042     12044
     12044     12049     12047     12048     12044     12049     12047     12099
     12044     12049     12051     12052     12044     12049     12051     12053
     12044     12049     12051     12055     12045     12044     12049     12047
     12045     12044     12049     12050     12045     12044     12049     12051
     12046     12044     12049     12047     12046     12044     12049     12050
     12046     12044     12049     12051     12047     12049     12051     12052
     12047     12049     12051     12053     12047     12049     12051     12055
     12047     12099     12101     12102     12047     12099     12101     12103
     12047     12099     12101     12104     12048     12047     12049     12050
     12048     12047     12049     12051     12048     12047     12099     12100
     12048     12047     12099     12101     12049     12047     12099     12100
     12049     12047     12099     12101     12049     12051     12053     12054
     12049     12051     12055     12056     12049     12051     12055     12057
     12050     12049     12047     12099     12050     12049     12051     12052
     12050     12049     12051     12053     12050     12049     12051     12055
     12051     12049     12047     12099     12051     12055     12057     12058
     12051     12055     12057     12059     12052     12051     12053     12054
     12052     12051     12055     12056     12052     12051     12055     12057
     12053     12051     12055     12056     12053     12051     12055     12057
     12054     12053     12051     12055     12055     12057     12059     12060
     12055     12057     12059     12061     12055     12057     12059     12062
     12056     12055     12057     12058     12056     12055     12057     12059
     12057     12059     12062     12063     12057     12059     12062     12064
     12057     12059     12062     12065     12058     12057     12059     12060
     12058     12057     12059     12061     12058     12057     12059     12062
     12059     12062     12065     12066     12059     12062     12065     12067
     12059     12062     12065     12068     12060     12059     12062     12063
     12060     12059     12062     12064     12060     12059     12062     12065
     12061     12059     12062     12063     12061     12059     12062     12064
     12061     12059     12062     12065     12062     12065     12068     12069
     12062     12065     12068     12070     12062     12065     12068     12071
     12063     12062     12065     12066     12063     12062     12065     12067
     12063     12062     12065     12068     12064     12062     12065     12066
     12064     12062     12065     12067     12064     12062     12065     12068
     12065     12068     12071     12072     12065     12068     12071     12073
     12065     12068     12071     12074     12066     12065     12068     12069
     12066     12065     12068     12070     12066     12065     12068     12071
     12067     12065     12068     12069     12067     12065     12068     12070
     12067     12065     12068     12071     12068     12071     12074     12075
     12068     12071     12074     12076     12068     12071     12074     12077
     12069     12068     12071     12072     12069     12068     12071     12073
     12069     12068     12071     12074     12070     12068     12071     12072
     12070     12068     12071     12073     12070     12068     12071     12074
     12071     12074     12077     12078     12071     12074     12077     12079
     12071     12074     12077     12080     12072     12071     12074     12075
     12072     12071     12074     12076     12072     12071     12074     12077
     12073     12071     12074     12075     12073     12071     12074     12076
     12073     12071     12074     12077     12074     12077     12080     12081
     12074     12077     12080     12082     12074     12077     12080     12083
     12075     12074     12077     12078     12075     12074     12077     12079
     12075     12074     12077     12080     12076     12074     12077     12078
     12076     12074     12077     12079     12076     12074     12077     12080
     12077     12080     12083     12084     12077     12080     12083     12085
     12077     12080     12083     12086     12078     12077     12080     12081
     12078     12077     12080     12082     12078     12077     12080     12083
     12079     12077     12080     12081     12079     12077     12080     12082
     12079     12077     12080     12083     12080     12083     12086     12087
     12080     12083     12086     12088     12080     12083     12086     12089
     12081     12080     12083     12084     12081     12080     12083     12085
     12081     12080     12083     12086     12082     12080     12083     12084
     12082     12080     12083     12085     12082     12080     12083     12086
     12083     12086     12089     12090     12083     12086     12089     12091
     12083     12086     12089     12092     12084     12083     12086     12087
     12084     12083     12086     12088     12084     12083     12086     12089
     12085     12083     12086     12087     12085     12083     12086     12088
     12085     12083     12086     12089     12086     12089     12092     12093
     12086     12089     12092     12094     12086     12089     12092     12095
     12087     12086     12089     12090     12087     12086     12089     12091
     12087     12086     12089     12092     12088     12086     12089     12090
     12088     12086     12089     12091     12088     12086     12089     12092
     12089     12092     12095     12096     12089     12092     12095     12097
     12089     12092     12095     12098     12090     12089     12092     12093
     12090     12089     12092     12094     12090     12089     12092     12095
     12091     12089     12092     12093     12091     12089     12092     12094
     12091     12089     12092     12095     12093     12092     12095     12096
     12093     12092     12095     12097     12093     12092     12095     12098
     12094     12092     12095     12096     12094     12092     12095     12097
     12094     12092     12095     12098     12099     12101     12104     12105
     12099     12101     12104     12106     12099     12101     12104     12107
     12100     12099     12101     12102     12100     12099     12101     12103
     12100     12099     12101     12104     12101     12104     12107     12108
     12101     12104     12107     12109     12101     12104     12107     12110
     12102     12101     12104     12105     12102     12101     12104     12106
     12102     12101     12104     12107     12103     12101     12104     12105
     12103     12101     12104     12106     12103     12101     12104     12107
     12104     12107     12110     12111     12104     12107     12110     12112
     12104     12107     12110     12113     12105     12104     12107     12108
     12105     12104     12107     12109     12105     12104     12107     12110
     12106     12104     12107     12108     12106     12104     12107     12109
     12106     12104     12107     12110     12107     12110     12113     12114
     12107     12110     12113     12115     12107     12110     12113     12116
     12108     12107     12110     12111     12108     12107     12110     12112
     12108     12107     12110     12113     12109     12107     12110     12111
     12109     12107     12110     12112     12109     12107     12110     12113
     12110     12113     12116     12117     12110     12113     12116     12118
     12110     12113     12116     12119     12111     12110     12113     12114
     12111     12110     12113     12115     12111     12110     12113     12116
     12112     12110     12113     12114     12112     12110     12113     12115
     12112     12110     12113     12116     12113     12116     12119     12120
     12113     12116     12119     12121     12113     12116     12119     12122
     12114     12113     12116     12117     12114     12113     12116     12118
     12114     12113     12116     12119     12115     12113     12116     12117
     12115     12113     12116     12118     12115     12113     12116     12119
     12116     12119     12122     12123     12116     12119     12122     12124
     12117     12116     12119     12120     12117     12116     12119     12121
     12117     12116     12119     12122     12118     12116     12119     12120
     12118     12116     12119     12121     12118     12116     12119     12122
     12119     12122     12124     12125     12119     12122     12124     12126
     12120     12119     12122     12123     12120     12119     12122     12124
     12121     12119     12122     12123     12121     12119     12122     12124
     12122     12124     12126     12127     12122     12124     12126     12128
     12122     12124     12126     12129     12123     12122     12124     12125
     12123     12122     12124     12126     12124     12126     12129     12130
     12124     12126     12129     12131     12124     12126     12129     12132
     12125     12124     12126     12127     12125     12124     12126     12128
     12125     12124     12126     12129     12126     12129     12132     12133
     12126     12129     12132     12134     12126     12129     12132     12135
     12127     12126     12129     12130     12127     12126     12129     12131
     12127     12126     12129     12132     12128     12126     12129     12130
     12128     12126     12129     12131     12128     12126     12129     12132
     12129     12132     12135     12136     12129     12132     12135     12137
     12129     12132     12135     12138     12130     12129     12132     12133
     12130     12129     12132     12134     12130     12129     12132     12135
     12131     12129     12132     12133     12131     12129     12132     12134
     12131     12129     12132     12135     12132     12135     12138     12139
     12132     12135     12138     12140     12132     12135     12138     12141
     12133     12132     12135     12136     12133     12132     12135     12137
     12133     12132     12135     12138     12134     12132     12135     12136
     12134     12132     12135     12137     12134     12132     12135     12138
     12135     12138     12141     12142     12135     12138     12141     12143
     12135     12138     12141     12144     12136     12135     12138     12139
     12136     12135     12138     12140     12136     12135     12138     12141
     12137     12135     12138     12139     12137     12135     12138     12140
     12137     12135     12138     12141     12138     12141     12144     12145
     12138     12141     12144     12146     12138     12141     12144     12147
     12139     12138     12141     12142     12139     12138     12141     12143
     12139     12138     12141     12144     12140     12138     12141     12142
     12140     12138     12141     12143     12140     12138     12141     12144
     12141     12144     12147     12148     12141     12144     12147     12149
     12141     12144     12147     12150     12142     12141     12144     12145
     12142     12141     12144     12146     12142     12141     12144     12147
     12143     12141     12144     12145     12143     12141     12144     12146
     12143     12141     12144     12147     12145     12144     12147     12148
     12145     12144     12147     12149     12145     12144     12147     12150
     12146     12144     12147     12148     12146     12144     12147     12149
     12146     12144     12147     12150     12151     12155     12158     12159
     12151     12155     12158     12160     12151     12155     12158     12164
     12152     12151     12155     12156     12152     12151     12155     12157
     12152     12151     12155     12158     12153     12151     12155     12156
     12153     12151     12155     12157     12153     12151     12155     12158
     12154     12151     12155     12156     12154     12151     12155     12157
     12154     12151     12155     12158     12155     12158     12164     12161
     12156     12155     12158     12159     12156     12155     12158     12160
     12156     12155     12158     12164     12157     12155     12158     12159
     12157     12155     12158     12160     12157     12155     12158     12164
     12158     12164     12161     12162     12158     12164     12161     12163
     12158     12164     12161     12165     12159     12158     12164     12161
     12160     12158     12164     12161     12161     12165     12166     12167
     12161     12165     12166     12168     12161     12165     12166     12169
     12162     12161     12165     12166     12163     12161     12165     12166
     12164     12161     12165     12166     12165     12166     12169     12170
     12165     12166     12169     12171     12165     12166     12169     12177
     12166     12169     12171     12172     12166     12169     12177     12178
     12166     12169     12177     12179     12166     12169     12177     12180
     12167     12166     12169     12170     12167     12166     12169     12171
     12167     12166     12169     12177     12168     12166     12169     12170
     12168     12166     12169     12171     12168     12166     12169     12177
     12169     12171     12172     12173     12169     12171     12172     12174
     12169     12177     12180     12181     12170     12169     12171     12172
     12170     12169     12177     12178     12170     12169     12177     12179
     12170     12169     12177     12180     12171     12169     12177     12178
     12171     12169     12177     12179     12171     12169     12177     12180
     12171     12172     12174     12175     12171     12172     12174     12176
     12171     12172     12174     12186     12172     12171     12169     12177
     12172     12174     12186     12187     12172     12174     12186     12188
     12172     12174     12186     12189     12173     12172     12174     12175
     12173     12172     12174     12176     12173     12172     12174     12186
     12174     12186     12189     12190     12174     12186     12189     12191
     12174     12186     12189     12192     12175     12174     12186     12187
     12175     12174     12186     12188     12175     12174     12186     12189
     12176     12174     12186     12187     12176     12174     12186     12188
     12176     12174     12186     12189     12177     12180     12181     12182
     12177     12180     12181     12183     12178     12177     12180     12181
     12179     12177     12180     12181     12180     12181     12183     12184
     12180     12181     12183     12185     12180     12181     12183     12233
     12181     12183     12233     12234     12181     12183     12233     12235
     12181     12183     12233     12236     12182     12181     12183     12184
     12182     12181     12183     12185     12182     12181     12183     12233
     12183     12233     12236     12237     12183     12233     12236     12238
     12183     12233     12236     12239     12184     12183     12233     12234
     12184     12183     12233     12235     12184     12183     12233     12236
     12185     12183     12233     12234     12185     12183     12233     12235
     12185     12183     12233     12236     12186     12189     12192     12193
     12186     12189     12192     12194     12186     12189     12192     12195
     12187     12186     12189     12190     12187     12186     12189     12191
     12187     12186     12189     12192     12188     12186     12189     12190
     12188     12186     12189     12191     12188     12186     12189     12192
     12189     12192     12195     12196     12189     12192     12195     12197
     12189     12192     12195     12198     12190     12189     12192     12193
     12190     12189     12192     12194     12190     12189     12192     12195
     12191     12189     12192     12193     12191     12189     12192     12194
     12191     12189     12192     12195     12192     12195     12198     12199
     12192     12195     12198     12200     12192     12195     12198     12201
     12193     12192     12195     12196     12193     12192     12195     12197
     12193     12192     12195     12198     12194     12192     12195     12196
     12194     12192     12195     12197     12194     12192     12195     12198
     12195     12198     12201     12202     12195     12198     12201     12203
     12195     12198     12201     12204     12196     12195     12198     12199
     12196     12195     12198     12200     12196     12195     12198     12201
     12197     12195     12198     12199     12197     12195     12198     12200
     12197     12195     12198     12201     12198     12201     12204     12205
     12198     12201     12204     12206     12199     12198     12201     12202
     12199     12198     12201     12203     12199     12198     12201     12204
     12200     12198     12201     12202     12200     12198     12201     12203
     12200     12198     12201     12204     12201     12204     12206     12207
     12201     12204     12206     12208     12202     12201     12204     12205
     12202     12201     12204     12206     12203     12201     12204     12205
     12203     12201     12204     12206     12204     12206     12208     12209
     12204     12206     12208     12210     12204     12206     12208     12211
     12205     12204     12206     12207     12205     12204     12206     12208
     12206     12208     12211     12212     12206     12208     12211     12213
     12206     12208     12211     12214     12207     12206     12208     12209
     12207     12206     12208     12210     12207     12206     12208     12211
     12208     12211     12214     12215     12208     12211     12214     12216
     12208     12211     12214     12217     12209     12208     12211     12212
     12209     12208     12211     12213     12209     12208     12211     12214
     12210     12208     12211     12212     12210     12208     12211     12213
     12210     12208     12211     12214     12211     12214     12217     12218
     12211     12214     12217     12219     12211     12214     12217     12220
     12212     12211     12214     12215     12212     12211     12214     12216
     12212     12211     12214     12217     12213     12211     12214     12215
     12213     12211     12214     12216     12213     12211     12214     12217
     12214     12217     12220     12221     12214     12217     12220     12222
     12214     12217     12220     12223     12215     12214     12217     12218
     12215     12214     12217     12219     12215     12214     12217     12220
     12216     12214     12217     12218     12216     12214     12217     12219
     12216     12214     12217     12220     12217     12220     12223     12224
     12217     12220     12223     12225     12217     12220     12223     12226
     12218     12217     12220     12221     12218     12217     12220     12222
     12218     12217     12220     12223     12219     12217     12220     12221
     12219     12217     12220     12222     12219     12217     12220     12223
     12220     12223     12226     12227     12220     12223     12226     12228
     12220     12223     12226     12229     12221     12220     12223     12224
     12221     12220     12223     12225     12221     12220     12223     12226
     12222     12220     12223     12224     12222     12220     12223     12225
     12222     12220     12223     12226     12223     12226     12229     12230
     12223     12226     12229     12231     12223     12226     12229     12232
     12224     12223     12226     12227     12224     12223     12226     12228
     12224     12223     12226     12229     12225     12223     12226     12227
     12225     12223     12226     12228     12225     12223     12226     12229
     12227     12226     12229     12230     12227     12226     12229     12231
     12227     12226     12229     12232     12228     12226     12229     12230
     12228     12226     12229     12231     12228     12226     12229     12232
     12233     12236     12239     12240     12233     12236     12239     12241
     12233     12236     12239     12242     12234     12233     12236     12237
     12234     12233     12236     12238     12234     12233     12236     12239
     12235     12233     12236     12237     12235     12233     12236     12238
     12235     12233     12236     12239     12236     12239     12242     12243
     12236     12239     12242     12244     12236     12239     12242     12245
     12237     12236     12239     12240     12237     12236     12239     12241
     12237     12236     12239     12242     12238     12236     12239     12240
     12238     12236     12239     12241     12238     12236     12239     12242
     12239     12242     12245     12246     12239     12242     12245     12247
     12239     12242     12245     12248     12240     12239     12242     12243
     12240     12239     12242     12244     12240     12239     12242     12245
     12241     12239     12242     12243     12241     12239     12242     12244
     12241     12239     12242     12245     12242     12245     12248     12249
     12242     12245     12248     12250     12242     12245     12248     12251
     12243     12242     12245     12246     12243     12242     12245     12247
     12243     12242     12245     12248     12244     12242     12245     12246
     12244     12242     12245     12247     12244     12242     12245     12248
     12245     12248     12251     12252     12245     12248     12251     12253
     12245     12248     12251     12254     12246     12245     12248     12249
     12246     12245     12248     12250     12246     12245     12248     12251
     12247     12245     12248     12249     12247     12245     12248     12250
     12247     12245     12248     12251     12248     12251     12254     12255
     12248     12251     12254     12256     12248     12251     12254     12257
     12249     12248     12251     12252     12249     12248     12251     12253
     12249     12248     12251     12254     12250     12248     12251     12252
     12250     12248     12251     12253     12250     12248     12251     12254
     12251     12254     12257     12258     12251     12254     12257     12259
     12251     12254     12257     12260     12252     12251     12254     12255
     12252     12251     12254     12256     12252     12251     12254     12257
     12253     12251     12254     12255     12253     12251     12254     12256
     12253     12251     12254     12257     12254     12257     12260     12261
     12254     12257     12260     12262     12254     12257     12260     12263
     12255     12254     12257     12258     12255     12254     12257     12259
     12255     12254     12257     12260     12256     12254     12257     12258
     12256     12254     12257     12259     12256     12254     12257     12260
     12257     12260     12263     12264     12257     12260     12263     12265
     12257     12260     12263     12266     12258     12257     12260     12261
     12258     12257     12260     12262     12258     12257     12260     12263
     12259     12257     12260     12261     12259     12257     12260     12262
     12259     12257     12260     12263     12260     12263     12266     12267
     12260     12263     12266     12268     12260     12263     12266     12269
     12261     12260     12263     12264     12261     12260     12263     12265
     12261     12260     12263     12266     12262     12260     12263     12264
     12262     12260     12263     12265     12262     12260     12263     12266
     12263     12266     12269     12270     12263     12266     12269     12271
     12263     12266     12269     12272     12264     12263     12266     12267
     12264     12263     12266     12268     12264     12263     12266     12269
     12265     12263     12266     12267     12265     12263     12266     12268
     12265     12263     12266     12269     12266     12269     12272     12273
     12266     12269     12272     12274     12266     12269     12272     12275
     12267     12266     12269     12270     12267     12266     12269     12271
     12267     12266     12269     12272     12268     12266     12269     12270
     12268     12266     12269     12271     12268     12266     12269     12272
     12269     12272     12275     12276     12269     12272     12275     12277
     12269     12272     12275     12278     12270     12269     12272     12273
     12270     12269     12272     12274     12270     12269     12272     12275
     12271     12269     12272     12273     12271     12269     12272     12274
     12271     12269     12272     12275     12272     12275     12278     12279
     12272     12275     12278     12280     12272     12275     12278     12281
     12273     12272     12275     12276     12273     12272     12275     12277
     12273     12272     12275     12278     12274     12272     12275     12276
     12274     12272     12275     12277     12274     12272     12275     12278
     12276     12275     12278     12279     12276     12275     12278     12280
     12276     12275     12278     12281     12277     12275     12278     12279
     12277     12275     12278     12280     12277     12275     12278     12281
     12282     12295     12298     12299     12282     12295     12298     12300
     12282     12295     12298     12305     12283     12282     12287     12288
     12283     12282     12287     12289     12283     12282     12287     12290
     12283     12282     12291     12292     12283     12282     12291     12293
     12283     12282     12291     12294     12283     12282     12295     12296
     12283     12282     12295     12297     12283     12282     12295     12298
     12284     12283     12282     12287     12284     12283     12282     12291
     12284     12283     12282     12295     12285     12283     12282     12287
     12285     12283     12282     12291     12285     12283     12282     12295
     12286     12283     12282     12287     12286     12283     12282     12291
     12286     12283     12282     12295     12287     12282     12291     12292
     12287     12282     12291     12293     12287     12282     12291     12294
     12287     12282     12295     12296     12287     12282     12295     12297
     12287     12282     12295     12298     12288     12287     12282     12291
     12288     12287     12282     12295     12289     12287     12282     12291
     12289     12287     12282     12295     12290     12287     12282     12291
     12290     12287     12282     12295     12291     12282     12295     12296
     12291     12282     12295     12297     12291     12282     12295     12298
     12292     12291     12282     12295     12293     12291     12282     12295
     12294     12291     12282     12295     12295     12298     12305     12301
     12296     12295     12298     12299     12296     12295     12298     12300
     12296     12295     12298     12305     12297     12295     12298     12299
     12297     12295     12298     12300     12297     12295     12298     12305
     12298     12305     12301     12302     12298     12305     12301     12303
     12298     12305     12301     12304     12299     12298     12305     12301
     12300     12298     12305     12301     12301     12304     12306     12307
     12301     12304     12306     12308     12301     12304     12306     12311
     12302     12301     12304     12306     12303     12301     12304     12306
     12304     12306     12311     12309     12304     12306     12311     12312
     12304     12306     12311     12313     12305     12301     12304     12306
     12306     12311     12309     12310     12306     12311     12309     12361
     12306     12311     12313     12314     12306     12311     12313     12315
     12306     12311     12313     12317     12307     12306     12311     12309
     12307     12306     12311     12312     12307     12306     12311     12313
     12308     12306     12311     12309     12308     12306     12311     12312
     12308     12306     12311     12313     12309     12311     12313     12314
     12309     12311     12313     12315     12309     12311     12313     12317
     12309     12361     12363     12364     12309     12361     12363     12365
     12309     12361     12363     12366     12310     12309     12311     12312
     12310     12309     12311     12313     12310     12309     12361     12362
     12310     12309     12361     12363     12311     12309     12361     12362
     12311     12309     12361     12363     12311     12313     12315     12316
     12311     12313     12317     12318     12311     12313     12317     12319
     12312     12311     12309     12361     12312     12311     12313     12314
     12312     12311     12313     12315     12312     12311     12313     12317
     12313     12311     12309     12361     12313     12317     12319     12320
     12313     12317     12319     12321     12314     12313     12315     12316
     12314     12313     12317     12318     12314     12313     12317     12319
     12315     12313     12317     12318     12315     12313     12317     12319
     12316     12315     12313     12317     12317     12319     12321     12322
     12317     12319     12321     12323     12317     12319     12321     12324
     12318     12317     12319     12320     12318     12317     12319     12321
     12319     12321     12324     12325     12319     12321     12324     12326
     12319     12321     12324     12327     12320     12319     12321     12322
     12320     12319     12321     12323     12320     12319     12321     12324
     12321     12324     12327     12328     12321     12324     12327     12329
     12321     12324     12327     12330     12322     12321     12324     12325
     12322     12321     12324     12326     12322     12321     12324     12327
     12323     12321     12324     12325     12323     12321     12324     12326
     12323     12321     12324     12327     12324     12327     12330     12331
     12324     12327     12330     12332     12324     12327     12330     12333
     12325     12324     12327     12328     12325     12324     12327     12329
     12325     12324     12327     12330     12326     12324     12327     12328
     12326     12324     12327     12329     12326     12324     12327     12330
     12327     12330     12333     12334     12327     12330     12333     12335
     12327     12330     12333     12336     12328     12327     12330     12331
     12328     12327     12330     12332     12328     12327     12330     12333
     12329     12327     12330     12331     12329     12327     12330     12332
     12329     12327     12330     12333     12330     12333     12336     12337
     12330     12333     12336     12338     12330     12333     12336     12339
     12331     12330     12333     12334     12331     12330     12333     12335
     12331     12330     12333     12336     12332     12330     12333     12334
     12332     12330     12333     12335     12332     12330     12333     12336
     12333     12336     12339     12340     12333     12336     12339     12341
     12333     12336     12339     12342     12334     12333     12336     12337
     12334     12333     12336     12338     12334     12333     12336     12339
     12335     12333     12336     12337     12335     12333     12336     12338
     12335     12333     12336     12339     12336     12339     12342     12343
     12336     12339     12342     12344     12336     12339     12342     12345
     12337     12336     12339     12340     12337     12336     12339     12341
     12337     12336     12339     12342     12338     12336     12339     12340
     12338     12336     12339     12341     12338     12336     12339     12342
     12339     12342     12345     12346     12339     12342     12345     12347
     12339     12342     12345     12348     12340     12339     12342     12343
     12340     12339     12342     12344     12340     12339     12342     12345
     12341     12339     12342     12343     12341     12339     12342     12344
     12341     12339     12342     12345     12342     12345     12348     12349
     12342     12345     12348     12350     12342     12345     12348     12351
     12343     12342     12345     12346     12343     12342     12345     12347
     12343     12342     12345     12348     12344     12342     12345     12346
     12344     12342     12345     12347     12344     12342     12345     12348
     12345     12348     12351     12352     12345     12348     12351     12353
     12345     12348     12351     12354     12346     12345     12348     12349
     12346     12345     12348     12350     12346     12345     12348     12351
     12347     12345     12348     12349     12347     12345     12348     12350
     12347     12345     12348     12351     12348     12351     12354     12355
     12348     12351     12354     12356     12348     12351     12354     12357
     12349     12348     12351     12352     12349     12348     12351     12353
     12349     12348     12351     12354     12350     12348     12351     12352
     12350     12348     12351     12353     12350     12348     12351     12354
     12351     12354     12357     12358     12351     12354     12357     12359
     12351     12354     12357     12360     12352     12351     12354     12355
     12352     12351     12354     12356     12352     12351     12354     12357
     12353     12351     12354     12355     12353     12351     12354     12356
     12353     12351     12354     12357     12355     12354     12357     12358
     12355     12354     12357     12359     12355     12354     12357     12360
     12356     12354     12357     12358     12356     12354     12357     12359
     12356     12354     12357     12360     12361     12363     12366     12367
     12361     12363     12366     12368     12361     12363     12366     12369
     12362     12361     12363     12364     12362     12361     12363     12365
     12362     12361     12363     12366     12363     12366     12369     12370
     12363     12366     12369     12371     12363     12366     12369     12372
     12364     12363     12366     12367     12364     12363     12366     12368
     12364     12363     12366     12369     12365     12363     12366     12367
     12365     12363     12366     12368     12365     12363     12366     12369
     12366     12369     12372     12373     12366     12369     12372     12374
     12366     12369     12372     12375     12367     12366     12369     12370
     12367     12366     12369     12371     12367     12366     12369     12372
     12368     12366     12369     12370     12368     12366     12369     12371
     12368     12366     12369     12372     12369     12372     12375     12376
     12369     12372     12375     12377     12369     12372     12375     12378
     12370     12369     12372     12373     12370     12369     12372     12374
     12370     12369     12372     12375     12371     12369     12372     12373
     12371     12369     12372     12374     12371     12369     12372     12375
     12372     12375     12378     12379     12372     12375     12378     12380
     12372     12375     12378     12381     12373     12372     12375     12376
     12373     12372     12375     12377     12373     12372     12375     12378
     12374     12372     12375     12376     12374     12372     12375     12377
     12374     12372     12375     12378     12375     12378     12381     12382
     12375     12378     12381     12383     12375     12378     12381     12384
     12376     12375     12378     12379     12376     12375     12378     12380
     12376     12375     12378     12381     12377     12375     12378     12379
     12377     12375     12378     12380     12377     12375     12378     12381
     12378     12381     12384     12385     12378     12381     12384     12386
     12379     12378     12381     12382     12379     12378     12381     12383
     12379     12378     12381     12384     12380     12378     12381     12382
     12380     12378     12381     12383     12380     12378     12381     12384
     12381     12384     12386     12387     12381     12384     12386     12388
     12382     12381     12384     12385     12382     12381     12384     12386
     12383     12381     12384     12385     12383     12381     12384     12386
     12384     12386     12388     12389     12384     12386     12388     12390
     12384     12386     12388     12391     12385     12384     12386     12387
     12385     12384     12386     12388     12386     12388     12391     12392
     12386     12388     12391     12393     12386     12388     12391     12394
     12387     12386     12388     12389     12387     12386     12388     12390
     12387     12386     12388     12391     12388     12391     12394     12395
     12388     12391     12394     12396     12388     12391     12394     12397
     12389     12388     12391     12392     12389     12388     12391     12393
     12389     12388     12391     12394     12390     12388     12391     12392
     12390     12388     12391     12393     12390     12388     12391     12394
     12391     12394     12397     12398     12391     12394     12397     12399
     12391     12394     12397     12400     12392     12391     12394     12395
     12392     12391     12394     12396     12392     12391     12394     12397
     12393     12391     12394     12395     12393     12391     12394     12396
     12393     12391     12394     12397     12394     12397     12400     12401
     12394     12397     12400     12402     12394     12397     12400     12403
     12395     12394     12397     12398     12395     12394     12397     12399
     12395     12394     12397     12400     12396     12394     12397     12398
     12396     12394     12397     12399     12396     12394     12397     12400
     12397     12400     12403     12404     12397     12400     12403     12405
     12397     12400     12403     12406     12398     12397     12400     12401
     12398     12397     12400     12402     12398     12397     12400     12403
     12399     12397     12400     12401     12399     12397     12400     12402
     12399     12397     12400     12403     12400     12403     12406     12407
     12400     12403     12406     12408     12400     12403     12406     12409
     12401     12400     12403     12404     12401     12400     12403     12405
     12401     12400     12403     12406     12402     12400     12403     12404
     12402     12400     12403     12405     12402     12400     12403     12406
     12403     12406     12409     12410     12403     12406     12409     12411
     12403     12406     12409     12412     12404     12403     12406     12407
     12404     12403     12406     12408     12404     12403     12406     12409
     12405     12403     12406     12407     12405     12403     12406     12408
     12405     12403     12406     12409     12407     12406     12409     12410
     12407     12406     12409     12411     12407     12406     12409     12412
     12408     12406     12409     12410     12408     12406     12409     12411
     12408     12406     12409     12412     12413     12426     12429     12430
     12413     12426     12429     12431     12413     12426     12429     12435
     12414     12413     12418     12419     12414     12413     12418     12420
     12414     12413     12418     12421     12414     12413     12422     12423
     12414     12413     12422     12424     12414     12413     12422     12425
     12414     12413     12426     12427     12414     12413     12426     12428
     12414     12413     12426     12429     12415     12414     12413     12418
     12415     12414     12413     12422     12415     12414     12413     12426
     12416     12414     12413     12418     12416     12414     12413     12422
     12416     12414     12413     12426     12417     12414     12413     12418
     12417     12414     12413     12422     12417     12414     12413     12426
     12418     12413     12422     12423     12418     12413     12422     12424
     12418     12413     12422     12425     12418     12413     12426     12427
     12418     12413     12426     12428     12418     12413     12426     12429
     12419     12418     12413     12422     12419     12418     12413     12426
     12420     12418     12413     12422     12420     12418     12413     12426
     12421     12418     12413     12422     12421     12418     12413     12426
     12422     12413     12426     12427     12422     12413     12426     12428
     12422     12413     12426     12429     12423     12422     12413     12426
     12424     12422     12413     12426     12425     12422     12413     12426
     12426     12429     12435     12432     12427     12426     12429     12430
     12427     12426     12429     12431     12427     12426     12429     12435
     12428     12426     12429     12430     12428     12426     12429     12431
     12428     12426     12429     12435     12429     12435     12432     12433
     12429     12435     12432     12434     12429     12435     12432     12436
     12430     12429     12435     12432     12431     12429     12435     12432
     12432     12436     12437     12438     12432     12436     12437     12439
     12432     12436     12437     12440     12433     12432     12436     12437
     12434     12432     12436     12437     12435     12432     12436     12437
     12436     12437     12440     12441     12436     12437     12440     12442
     12436     12437     12440     12448     12437     12440     12442     12443
     12437     12440     12448     12449     12437     12440     12448     12450
     12437     12440     12448     12451     12438     12437     12440     12441
     12438     12437     12440     12442     12438     12437     12440     12448
     12439     12437     12440     12441     12439     12437     12440     12442
     12439     12437     12440     12448     12440     12442     12443     12444
     12440     12442     12443     12445     12440     12448     12451     12452
     12441     12440     12442     12443     12441     12440     12448     12449
     12441     12440     12448     12450     12441     12440     12448     12451
     12442     12440     12448     12449     12442     12440     12448     12450
     12442     12440     12448     12451     12442     12443     12445     12446
     12442     12443     12445     12447     12442     12443     12445     12457
     12443     12442     12440     12448     12443     12445     12457     12458
     12443     12445     12457     12459     12443     12445     12457     12460
     12444     12443     12445     12446     12444     12443     12445     12447
     12444     12443     12445     12457     12445     12457     12460     12461
     12445     12457     12460     12462     12445     12457     12460     12463
     12446     12445     12457     12458     12446     12445     12457     12459
     12446     12445     12457     12460     12447     12445     12457     12458
     12447     12445     12457     12459     12447     12445     12457     12460
     12448     12451     12452     12453     12448     12451     12452     12454
     12449     12448     12451     12452     12450     12448     12451     12452
     12451     12452     12454     12455     12451     12452     12454     12456
     12451     12452     12454     12502     12452     12454     12502     12503
     12452     12454     12502     12504     12452     12454     12502     12505
     12453     12452     12454     12455     12453     12452     12454     12456
     12453     12452     12454     12502     12454     12502     12505     12506
     12454     12502     12505     12507     12454     12502     12505     12508
     12455     12454     12502     12503     12455     12454     12502     12504
     12455     12454     12502     12505     12456     12454     12502     12503
     12456     12454     12502     12504     12456     12454     12502     12505
     12457     12460     12463     12464     12457     12460     12463     12465
     12457     12460     12463     12466     12458     12457     12460     12461
     12458     12457     12460     12462     12458     12457     12460     12463
     12459     12457     12460     12461     12459     12457     12460     12462
     12459     12457     12460     12463     12460     12463     12466     12467
     12460     12463     12466     12468     12460     12463     12466     12469
     12461     12460     12463     12464     12461     12460     12463     12465
     12461     12460     12463     12466     12462     12460     12463     12464
     12462     12460     12463     12465     12462     12460     12463     12466
     12463     12466     12469     12470     12463     12466     12469     12471
     12463     12466     12469     12472     12464     12463     12466     12467
     12464     12463     12466     12468     12464     12463     12466     12469
     12465     12463     12466     12467     12465     12463     12466     12468
     12465     12463     12466     12469     12466     12469     12472     12473
     12466     12469     12472     12474     12466     12469     12472     12475
     12467     12466     12469     12470     12467     12466     12469     12471
     12467     12466     12469     12472     12468     12466     12469     12470
     12468     12466     12469     12471     12468     12466     12469     12472
     12469     12472     12475     12476     12469     12472     12475     12477
     12470     12469     12472     12473     12470     12469     12472     12474
     12470     12469     12472     12475     12471     12469     12472     12473
     12471     12469     12472     12474     12471     12469     12472     12475
     12472     12475     12477     12478     12472     12475     12477     12479
     12473     12472     12475     12476     12473     12472     12475     12477
     12474     12472     12475     12476     12474     12472     12475     12477
     12475     12477     12479     12480     12475     12477     12479     12481
     12475     12477     12479     12482     12476     12475     12477     12478
     12476     12475     12477     12479     12477     12479     12482     12483
     12477     12479     12482     12484     12478     12477     12479     12480
     12478     12477     12479     12481     12478     12477     12479     12482
     12479     12482     12484     12485     12479     12482     12484     12486
     12480     12479     12482     12483     12480     12479     12482     12484
     12481     12479     12482     12483     12481     12479     12482     12484
     12482     12484     12486     12487     12482     12484     12486     12488
     12482     12484     12486     12489     12483     12482     12484     12485
     12483     12482     12484     12486     12484     12486     12489     12490
     12484     12486     12489     12491     12484     12486     12489     12492
     12485     12484     12486     12487     12485     12484     12486     12488
     12485     12484     12486     12489     12486     12489     12492     12493
     12486     12489     12492     12494     12486     12489     12492     12495
     12487     12486     12489     12490     12487     12486     12489     12491
     12487     12486     12489     12492     12488     12486     12489     12490
     12488     12486     12489     12491     12488     12486     12489     12492
     12489     12492     12495     12496     12489     12492     12495     12497
     12489     12492     12495     12498     12490     12489     12492     12493
     12490     12489     12492     12494     12490     12489     12492     12495
     12491     12489     12492     12493     12491     12489     12492     12494
     12491     12489     12492     12495     12492     12495     12498     12499
     12492     12495     12498     12500     12492     12495     12498     12501
     12493     12492     12495     12496     12493     12492     12495     12497
     12493     12492     12495     12498     12494     12492     12495     12496
     12494     12492     12495     12497     12494     12492     12495     12498
     12496     12495     12498     12499     12496     12495     12498     12500
     12496     12495     12498     12501     12497     12495     12498     12499
     12497     12495     12498     12500     12497     12495     12498     12501
     12502     12505     12508     12509     12502     12505     12508     12510
     12502     12505     12508     12511     12503     12502     12505     12506
     12503     12502     12505     12507     12503     12502     12505     12508
     12504     12502     12505     12506     12504     12502     12505     12507
     12504     12502     12505     12508     12505     12508     12511     12512
     12505     12508     12511     12513     12505     12508     12511     12514
     12506     12505     12508     12509     12506     12505     12508     12510
     12506     12505     12508     12511     12507     12505     12508     12509
     12507     12505     12508     12510     12507     12505     12508     12511
     12508     12511     12514     12515     12508     12511     12514     12516
     12508     12511     12514     12517     12509     12508     12511     12512
     12509     12508     12511     12513     12509     12508     12511     12514
     12510     12508     12511     12512     12510     12508     12511     12513
     12510     12508     12511     12514     12511     12514     12517     12518
     12511     12514     12517     12519     12511     12514     12517     12520
     12512     12511     12514     12515     12512     12511     12514     12516
     12512     12511     12514     12517     12513     12511     12514     12515
     12513     12511     12514     12516     12513     12511     12514     12517
     12514     12517     12520     12521     12514     12517     12520     12522
     12514     12517     12520     12523     12515     12514     12517     12518
     12515     12514     12517     12519     12515     12514     12517     12520
     12516     12514     12517     12518     12516     12514     12517     12519
     12516     12514     12517     12520     12517     12520     12523     12524
     12517     12520     12523     12525     12517     12520     12523     12526
     12518     12517     12520     12521     12518     12517     12520     12522
     12518     12517     12520     12523     12519     12517     12520     12521
     12519     12517     12520     12522     12519     12517     12520     12523
     12520     12523     12526     12527     12520     12523     12526     12528
     12520     12523     12526     12529     12521     12520     12523     12524
     12521     12520     12523     12525     12521     12520     12523     12526
     12522     12520     12523     12524     12522     12520     12523     12525
     12522     12520     12523     12526     12523     12526     12529     12530
     12523     12526     12529     12531     12523     12526     12529     12532
     12524     12523     12526     12527     12524     12523     12526     12528
     12524     12523     12526     12529     12525     12523     12526     12527
     12525     12523     12526     12528     12525     12523     12526     12529
     12526     12529     12532     12533     12526     12529     12532     12534
     12526     12529     12532     12535     12527     12526     12529     12530
     12527     12526     12529     12531     12527     12526     12529     12532
     12528     12526     12529     12530     12528     12526     12529     12531
     12528     12526     12529     12532     12529     12532     12535     12536
     12529     12532     12535     12537     12529     12532     12535     12538
     12530     12529     12532     12533     12530     12529     12532     12534
     12530     12529     12532     12535     12531     12529     12532     12533
     12531     12529     12532     12534     12531     12529     12532     12535
     12532     12535     12538     12539     12532     12535     12538     12540
     12532     12535     12538     12541     12533     12532     12535     12536
     12533     12532     12535     12537     12533     12532     12535     12538
     12534     12532     12535     12536     12534     12532     12535     12537
     12534     12532     12535     12538     12535     12538     12541     12542
     12535     12538     12541     12543     12535     12538     12541     12544
     12536     12535     12538     12539     12536     12535     12538     12540
     12536     12535     12538     12541     12537     12535     12538     12539
     12537     12535     12538     12540     12537     12535     12538     12541
     12538     12541     12544     12545     12538     12541     12544     12546
     12538     12541     12544     12547     12539     12538     12541     12542
     12539     12538     12541     12543     12539     12538     12541     12544
     12540     12538     12541     12542     12540     12538     12541     12543
     12540     12538     12541     12544     12541     12544     12547     12548
     12541     12544     12547     12549     12541     12544     12547     12550
     12542     12541     12544     12545     12542     12541     12544     12546
     12542     12541     12544     12547     12543     12541     12544     12545
     12543     12541     12544     12546     12543     12541     12544     12547
     12545     12544     12547     12548     12545     12544     12547     12549
     12545     12544     12547     12550     12546     12544     12547     12548
     12546     12544     12547     12549     12546     12544     12547     12550
     12551     12552     12567     12568     12551     12552     12567     12569
     12551     12552     12567     12573     12552     12551     12555     12556
     12552     12551     12555     12557     12552     12551     12555     12558
     12552     12551     12559     12560     12552     12551     12559     12561
     12552     12551     12559     12562     12552     12551     12563     12564
     12552     12551     12563     12565     12552     12551     12563     12566
     12552     12567     12573     12570     12553     12552     12551     12555
     12553     12552     12551     12559     12553     12552     12551     12563
     12553     12552     12567     12568     12553     12552     12567     12569
     12553     12552     12567     12573     12554     12552     12551     12555
     12554     12552     12551     12559     12554     12552     12551     12563
     12554     12552     12567     12568     12554     12552     12567     12569
     12554     12552     12567     12573     12555     12551     12552     12567
     12555     12551     12559     12560     12555     12551     12559     12561
     12555     12551     12559     12562     12555     12551     12563     12564
     12555     12551     12563     12565     12555     12551     12563     12566
     12556     12555     12551     12559     12556     12555     12551     12563
     12557     12555     12551     12559     12557     12555     12551     12563
     12558     12555     12551     12559     12558     12555     12551     12563
     12559     12551     12552     12567     12559     12551     12563     12564
     12559     12551     12563     12565     12559     12551     12563     12566
     12560     12559     12551     12563     12561     12559     12551     12563
     12562     12559     12551     12563     12563     12551     12552     12567
     12567     12573     12570     12571     12567     12573     12570     12572
     12567     12573     12570     12574     12568     12567     12573     12570
     12569     12567     12573     12570     12570     12574     12575     12576
     12570     12574     12575     12577     12570     12574     12575     12578
     12571     12570     12574     12575     12572     12570     12574     12575
     12573     12570     12574     12575     12574     12575     12578     12579
     12574     12575     12578     12580     12574     12575     12578     12586
     12575     12578     12580     12581     12575     12578     12586     12587
     12575     12578     12586     12588     12575     12578     12586     12589
     12576     12575     12578     12579     12576     12575     12578     12580
     12576     12575     12578     12586     12577     12575     12578     12579
     12577     12575     12578     12580     12577     12575     12578     12586
     12578     12580     12581     12582     12578     12580     12581     12583
     12578     12586     12589     12590     12579     12578     12580     12581
     12579     12578     12586     12587     12579     12578     12586     12588
     12579     12578     12586     12589     12580     12578     12586     12587
     12580     12578     12586     12588     12580     12578     12586     12589
     12580     12581     12583     12584     12580     12581     12583     12585
     12580     12581     12583     12595     12581     12580     12578     12586
     12581     12583     12595     12596     12581     12583     12595     12597
     12581     12583     12595     12598     12582     12581     12583     12584
     12582     12581     12583     12585     12582     12581     12583     12595
     12583     12595     12598     12599     12583     12595     12598     12600
     12583     12595     12598     12601     12584     12583     12595     12596
     12584     12583     12595     12597     12584     12583     12595     12598
     12585     12583     12595     12596     12585     12583     12595     12597
     12585     12583     12595     12598     12586     12589     12590     12591
     12586     12589     12590     12592     12587     12586     12589     12590
     12588     12586     12589     12590     12589     12590     12592     12593
     12589     12590     12592     12594     12589     12590     12592     12642
     12590     12592     12642     12643     12590     12592     12642     12644
     12590     12592     12642     12645     12591     12590     12592     12593
     12591     12590     12592     12594     12591     12590     12592     12642
     12592     12642     12645     12646     12592     12642     12645     12647
     12592     12642     12645     12648     12593     12592     12642     12643
     12593     12592     12642     12644     12593     12592     12642     12645
     12594     12592     12642     12643     12594     12592     12642     12644
     12594     12592     12642     12645     12595     12598     12601     12602
     12595     12598     12601     12603     12596     12595     12598     12599
     12596     12595     12598     12600     12596     12595     12598     12601
     12597     12595     12598     12599     12597     12595     12598     12600
     12597     12595     12598     12601     12598     12601     12603     12604
     12598     12601     12603     12605     12599     12598     12601     12602
     12599     12598     12601     12603     12600     12598     12601     12602
     12600     12598     12601     12603     12601     12603     12605     12606
     12601     12603     12605     12607     12601     12603     12605     12608
     12602     12601     12603     12604     12602     12601     12603     12605
     12603     12605     12608     12609     12603     12605     12608     12610
     12604     12603     12605     12606     12604     12603     12605     12607
     12604     12603     12605     12608     12605     12608     12610     12611
     12605     12608     12610     12612     12606     12605     12608     12609
     12606     12605     12608     12610     12607     12605     12608     12609
     12607     12605     12608     12610     12608     12610     12612     12613
     12608     12610     12612     12614     12608     12610     12612     12615
     12609     12608     12610     12611     12609     12608     12610     12612
     12610     12612     12615     12616     12610     12612     12615     12617
     12611     12610     12612     12613     12611     12610     12612     12614
     12611     12610     12612     12615     12612     12615     12617     12618
     12612     12615     12617     12619     12613     12612     12615     12616
     12613     12612     12615     12617     12614     12612     12615     12616
     12614     12612     12615     12617     12615     12617     12619     12620
     12615     12617     12619     12621     12615     12617     12619     12622
     12616     12615     12617     12618     12616     12615     12617     12619
     12617     12619     12622     12623     12617     12619     12622     12624
     12618     12617     12619     12620     12618     12617     12619     12621
     12618     12617     12619     12622     12619     12622     12624     12625
     12619     12622     12624     12626     12620     12619     12622     12623
     12620     12619     12622     12624     12621     12619     12622     12623
     12621     12619     12622     12624     12622     12624     12626     12627
     12622     12624     12626     12628     12622     12624     12626     12629
     12623     12622     12624     12625     12623     12622     12624     12626
     12624     12626     12629     12630     12624     12626     12629     12631
     12624     12626     12629     12632     12625     12624     12626     12627
     12625     12624     12626     12628     12625     12624     12626     12629
     12626     12629     12632     12633     12626     12629     12632     12634
     12626     12629     12632     12635     12627     12626     12629     12630
     12627     12626     12629     12631     12627     12626     12629     12632
     12628     12626     12629     12630     12628     12626     12629     12631
     12628     12626     12629     12632     12629     12632     12635     12636
     12629     12632     12635     12637     12629     12632     12635     12638
     12630     12629     12632     12633     12630     12629     12632     12634
     12630     12629     12632     12635     12631     12629     12632     12633
     12631     12629     12632     12634     12631     12629     12632     12635
     12632     12635     12638     12639     12632     12635     12638     12640
     12632     12635     12638     12641     12633     12632     12635     12636
     12633     12632     12635     12637     12633     12632     12635     12638
     12634     12632     12635     12636     12634     12632     12635     12637
     12634     12632     12635     12638     12636     12635     12638     12639
     12636     12635     12638     12640     12636     12635     12638     12641
     12637     12635     12638     12639     12637     12635     12638     12640
     12637     12635     12638     12641     12642     12645     12648     12649
     12642     12645     12648     12650     12642     12645     12648     12651
     12643     12642     12645     12646     12643     12642     12645     12647
     12643     12642     12645     12648     12644     12642     12645     12646
     12644     12642     12645     12647     12644     12642     12645     12648
     12645     12648     12651     12652     12645     12648     12651     12653
     12645     12648     12651     12654     12646     12645     12648     12649
     12646     12645     12648     12650     12646     12645     12648     12651
     12647     12645     12648     12649     12647     12645     12648     12650
     12647     12645     12648     12651     12648     12651     12654     12655
     12648     12651     12654     12656     12648     12651     12654     12657
     12649     12648     12651     12652     12649     12648     12651     12653
     12649     12648     12651     12654     12650     12648     12651     12652
     12650     12648     12651     12653     12650     12648     12651     12654
     12651     12654     12657     12658     12651     12654     12657     12659
     12651     12654     12657     12660     12652     12651     12654     12655
     12652     12651     12654     12656     12652     12651     12654     12657
     12653     12651     12654     12655     12653     12651     12654     12656
     12653     12651     12654     12657     12654     12657     12660     12661
     12654     12657     12660     12662     12654     12657     12660     12663
     12655     12654     12657     12658     12655     12654     12657     12659
     12655     12654     12657     12660     12656     12654     12657     12658
     12656     12654     12657     12659     12656     12654     12657     12660
     12657     12660     12663     12664     12657     12660     12663     12665
     12657     12660     12663     12666     12658     12657     12660     12661
     12658     12657     12660     12662     12658     12657     12660     12663
     12659     12657     12660     12661     12659     12657     12660     12662
     12659     12657     12660     12663     12660     12663     12666     12667
     12660     12663     12666     12668     12660     12663     12666     12669
     12661     12660     12663     12664     12661     12660     12663     12665
     12661     12660     12663     12666     12662     12660     12663     12664
     12662     12660     12663     12665     12662     12660     12663     12666
     12663     12666     12669     12670     12663     12666     12669     12671
     12663     12666     12669     12672     12664     12663     12666     12667
     12664     12663     12666     12668     12664     12663     12666     12669
     12665     12663     12666     12667     12665     12663     12666     12668
     12665     12663     12666     12669     12666     12669     12672     12673
     12666     12669     12672     12674     12666     12669     12672     12675
     12667     12666     12669     12670     12667     12666     12669     12671
     12667     12666     12669     12672     12668     12666     12669     12670
     12668     12666     12669     12671     12668     12666     12669     12672
     12669     12672     12675     12676     12669     12672     12675     12677
     12669     12672     12675     12678     12670     12669     12672     12673
     12670     12669     12672     12674     12670     12669     12672     12675
     12671     12669     12672     12673     12671     12669     12672     12674
     12671     12669     12672     12675     12672     12675     12678     12679
     12672     12675     12678     12680     12672     12675     12678     12681
     12673     12672     12675     12676     12673     12672     12675     12677
     12673     12672     12675     12678     12674     12672     12675     12676
     12674     12672     12675     12677     12674     12672     12675     12678
     12675     12678     12681     12682     12675     12678     12681     12683
     12675     12678     12681     12684     12676     12675     12678     12679
     12676     12675     12678     12680     12676     12675     12678     12681
     12677     12675     12678     12679     12677     12675     12678     12680
     12677     12675     12678     12681     12678     12681     12684     12685
     12678     12681     12684     12686     12678     12681     12684     12687
     12679     12678     12681     12682     12679     12678     12681     12683
     12679     12678     12681     12684     12680     12678     12681     12682
     12680     12678     12681     12683     12680     12678     12681     12684
     12681     12684     12687     12688     12681     12684     12687     12689
     12681     12684     12687     12690     12682     12681     12684     12685
     12682     12681     12684     12686     12682     12681     12684     12687
     12683     12681     12684     12685     12683     12681     12684     12686
     12683     12681     12684     12687     12685     12684     12687     12688
     12685     12684     12687     12689     12685     12684     12687     12690
     12686     12684     12687     12688     12686     12684     12687     12689
     12686     12684     12687     12690     12691     12695     12698     12699
     12691     12695     12698     12729     12691     12737     12734     12729
     12691     12737     12734     12735     12691     12737     12734     12736
     12692     12691     12693     12694     12692     12691     12695     12696
     12692     12691     12695     12697     12692     12691     12695     12698
     12692     12691     12737     12734     12692     12691     12737     12738
     12692     12691     12737     12739     12693     12691     12695     12696
     12693     12691     12695     12697     12693     12691     12695     12698
     12693     12691     12737     12734     12693     12691     12737     12738
     12693     12691     12737     12739     12694     12693     12691     12695
     12694     12693     12691     12737     12695     12691     12737     12734
     12695     12691     12737     12738     12695     12691     12737     12739
     12695     12698     12699     12700     12695     12698     12699     12701
     12695     12698     12729     12727     12695     12698     12729     12730
     12695     12698     12729     12734     12696     12695     12691     12737
     12696     12695     12698     12699     12696     12695     12698     12729
     12697     12695     12691     12737     12697     12695     12698     12699
     12697     12695     12698     12729     12698     12695     12691     12737
     12698     12699     12701     12702     12698     12699     12701     12703
     12698     12699     12701     12704     12698     12729     12727     12704
     12698     12729     12727     12724     12698     12729     12727     12728
     12698     12729     12730     12731     12698     12729     12730     12732
     12698     12729     12730     12733     12698     12729     12734     12735
     12698     12729     12734     12736     12698     12729     12734     12737
     12699     12698     12729     12727     12699     12698     12729     12730
     12699     12698     12729     12734     12699     12701     12704     12705
     12699     12701     12704     12706     12699     12701     12704     12727
     12700     12699     12698     12729     12700     12699     12701     12702
     12700     12699     12701     12703     12700     12699     12701     12704
     12701     12699     12698     12729     12701     12704     12706     12707
     12701     12704     12706     12708     12701     12704     12706     12716
     12701     12704     12727     12724     12701     12704     12727     12728
     12701     12704     12727     12729     12702     12701     12704     12705
     12702     12701     12704     12706     12702     12701     12704     12727
     12703     12701     12704     12705     12703     12701     12704     12706
     12703     12701     12704     12727     12704     12706     12708     12709
     12704     12706     12708     12710     12704     12706     12708     12711
     12704     12706     12716     12714     12704     12706     12716     12717
     12704     12706     12716     12721     12704     12727     12724     12721
     12704     12727     12724     12725     12704     12727     12724     12726
     12704     12727     12729     12730     12704     12727     12729     12734
     12705     12704     12706     12707     12705     12704     12706     12708
     12705     12704     12706     12716     12705     12704     12727     12724
     12705     12704     12727     12728     12705     12704     12727     12729
     12706     12704     12727     12724     12706     12704     12727     12728
     12706     12704     12727     12729     12706     12708     12711     12712
     12706     12708     12711     12713     12706     12708     12711     12714
     12706     12716     12714     12711     12706     12716     12714     12715
     12706     12716     12714     12740     12706     12716     12717     12718
     12706     12716     12717     12719     12706     12716     12717     12720
     12706     12716     12721     12722     12706     12716     12721     12723
     12706     12716     12721     12724     12707     12706     12704     12727
     12707     12706     12708     12709     12707     12706     12708     12710
     12707     12706     12708     12711     12707     12706     12716     12714
     12707     12706     12716     12717     12707     12706     12716     12721
     12708     12706     12704     12727     12708     12706     12716     12714
     12708     12706     12716     12717     12708     12706     12716     12721
     12708     12711     12714     12715     12708     12711     12714     12716
     12708     12711     12714     12740     12709     12708     12706     12716
     12709     12708     12711     12712     12709     12708     12711     12713
     12709     12708     12711     12714     12710     12708     12706     12716
     12710     12708     12711     12712     12710     12708     12711     12713
     12710     12708     12711     12714     12711     12708     12706     12716
     12711     12714     12716     12717     12711     12714     12716     12721
     12711     12714     12740     12741     12711     12714     12740     12742
     12711     12714     12740     12746     12712     12711     12714     12715
     12712     12711     12714     12716     12712     12711     12714     12740
     12713     12711     12714     12715     12713     12711     12714     12716
     12713     12711     12714     12740     12714     12716     12717     12718
     12714     12716     12717     12719     12714     12716     12717     12720
     12714     12716     12721     12722     12714     12716     12721     12723
     12714     12716     12721     12724     12714     12740     12742     12743
     12714     12740     12742     12744     12714     12740     12742     12745
     12714     12740     12746     12747     12714     12740     12746     12748
     12714     12740     12746     12749     12715     12714     12716     12717
     12715     12714     12716     12721     12715     12714     12740     12741
     12715     12714     12740     12742     12715     12714     12740     12746
     12716     12706     12704     12727     12716     12714     12740     12741
     12716     12714     12740     12742     12716     12714     12740     12746
     12716     12721     12724     12725     12716     12721     12724     12726
     12716     12721     12724     12727     12717     12716     12714     12740
     12717     12716     12721     12722     12717     12716     12721     12723
     12717     12716     12721     12724     12718     12717     12716     12721
     12719     12717     12716     12721     12720     12717     12716     12721
     12721     12716     12714     12740     12721     12724     12727     12728
     12721     12724     12727     12729     12722     12721     12724     12725
     12722     12721     12724     12726     12722     12721     12724     12727
     12723     12721     12724     12725     12723     12721     12724     12726
     12723     12721     12724     12727     12724     12727     12729     12730
     12724     12727     12729     12734     12725     12724     12727     12728
     12725     12724     12727     12729     12726     12724     12727     12728
     12726     12724     12727     12729     12727     12729     12730     12731
     12727     12729     12730     12732     12727     12729     12730     12733
     12727     12729     12734     12735     12727     12729     12734     12736
     12727     12729     12734     12737     12728     12727     12729     12730
     12728     12727     12729     12734     12729     12734     12737     12738
     12729     12734     12737     12739     12730     12729     12734     12735
     12730     12729     12734     12736     12730     12729     12734     12737
     12731     12730     12729     12734     12732     12730     12729     12734
     12733     12730     12729     12734     12735     12734     12737     12738
     12735     12734     12737     12739     12736     12734     12737     12738
     12736     12734     12737     12739     12740     12746     12749     12750
     12740     12746     12749     12751     12740     12746     12749     12752
     12741     12740     12742     12743     12741     12740     12742     12744
     12741     12740     12742     12745     12741     12740     12746     12747
     12741     12740     12746     12748     12741     12740     12746     12749
     12742     12740     12746     12747     12742     12740     12746     12748
     12742     12740     12746     12749     12743     12742     12740     12746
     12744     12742     12740     12746     12745     12742     12740     12746
     12746     12749     12752     12753     12746     12749     12752     12754
     12746     12749     12752     12755     12747     12746     12749     12750
     12747     12746     12749     12751     12747     12746     12749     12752
     12748     12746     12749     12750     12748     12746     12749     12751
     12748     12746     12749     12752     12749     12752     12755     12756
     12749     12752     12755     12757     12749     12752     12755     12761
     12750     12749     12752     12753     12750     12749     12752     12754
     12750     12749     12752     12755     12751     12749     12752     12753
     12751     12749     12752     12754     12751     12749     12752     12755
     12752     12755     12757     12758     12752     12755     12757     12759
     12752     12755     12757     12760     12752     12755     12761     12762
     12752     12755     12761     12763     12752     12755     12761     12764
     12753     12752     12755     12756     12753     12752     12755     12757
     12753     12752     12755     12761     12754     12752     12755     12756
     12754     12752     12755     12757     12754     12752     12755     12761
     12756     12755     12757     12758     12756     12755     12757     12759
     12756     12755     12757     12760     12756     12755     12761     12762
     12756     12755     12761     12763     12756     12755     12761     12764
     12757     12755     12761     12762     12757     12755     12761     12763
     12757     12755     12761     12764     12758     12757     12755     12761
     12759     12757     12755     12761     12760     12757     12755     12761
     12765     12769     12772     12773     12765     12769     12772     12803
     12765     12811     12808     12803     12765     12811     12808     12809
     12765     12811     12808     12810     12766     12765     12767     12768
     12766     12765     12769     12770     12766     12765     12769     12771
     12766     12765     12769     12772     12766     12765     12811     12808
     12766     12765     12811     12812     12766     12765     12811     12813
     12767     12765     12769     12770     12767     12765     12769     12771
     12767     12765     12769     12772     12767     12765     12811     12808
     12767     12765     12811     12812     12767     12765     12811     12813
     12768     12767     12765     12769     12768     12767     12765     12811
     12769     12765     12811     12808     12769     12765     12811     12812
     12769     12765     12811     12813     12769     12772     12773     12774
     12769     12772     12773     12775     12769     12772     12803     12801
     12769     12772     12803     12804     12769     12772     12803     12808
     12770     12769     12765     12811     12770     12769     12772     12773
     12770     12769     12772     12803     12771     12769     12765     12811
     12771     12769     12772     12773     12771     12769     12772     12803
     12772     12769     12765     12811     12772     12773     12775     12776
     12772     12773     12775     12777     12772     12773     12775     12778
     12772     12803     12801     12778     12772     12803     12801     12798
     12772     12803     12801     12802     12772     12803     12804     12805
     12772     12803     12804     12806     12772     12803     12804     12807
     12772     12803     12808     12809     12772     12803     12808     12810
     12772     12803     12808     12811     12773     12772     12803     12801
     12773     12772     12803     12804     12773     12772     12803     12808
     12773     12775     12778     12779     12773     12775     12778     12780
     12773     12775     12778     12801     12774     12773     12772     12803
     12774     12773     12775     12776     12774     12773     12775     12777
     12774     12773     12775     12778     12775     12773     12772     12803
     12775     12778     12780     12781     12775     12778     12780     12782
     12775     12778     12780     12790     12775     12778     12801     12798
     12775     12778     12801     12802     12775     12778     12801     12803
     12776     12775     12778     12779     12776     12775     12778     12780
     12776     12775     12778     12801     12777     12775     12778     12779
     12777     12775     12778     12780     12777     12775     12778     12801
     12778     12780     12782     12783     12778     12780     12782     12784
     12778     12780     12782     12785     12778     12780     12790     12788
     12778     12780     12790     12791     12778     12780     12790     12795
     12778     12801     12798     12795     12778     12801     12798     12799
     12778     12801     12798     12800     12778     12801     12803     12804
     12778     12801     12803     12808     12779     12778     12780     12781
     12779     12778     12780     12782     12779     12778     12780     12790
     12779     12778     12801     12798     12779     12778     12801     12802
     12779     12778     12801     12803     12780     12778     12801     12798
     12780     12778     12801     12802     12780     12778     12801     12803
     12780     12782     12785     12786     12780     12782     12785     12787
     12780     12782     12785     12788     12780     12790     12788     12785
     12780     12790     12788     12789     12780     12790     12788     12814
     12780     12790     12791     12792     12780     12790     12791     12793
     12780     12790     12791     12794     12780     12790     12795     12796
     12780     12790     12795     12797     12780     12790     12795     12798
     12781     12780     12778     12801     12781     12780     12782     12783
     12781     12780     12782     12784     12781     12780     12782     12785
     12781     12780     12790     12788     12781     12780     12790     12791
     12781     12780     12790     12795     12782     12780     12778     12801
     12782     12780     12790     12788     12782     12780     12790     12791
     12782     12780     12790     12795     12782     12785     12788     12789
     12782     12785     12788     12790     12782     12785     12788     12814
     12783     12782     12780     12790     12783     12782     12785     12786
     12783     12782     12785     12787     12783     12782     12785     12788
     12784     12782     12780     12790     12784     12782     12785     12786
     12784     12782     12785     12787     12784     12782     12785     12788
     12785     12782     12780     12790     12785     12788     12790     12791
     12785     12788     12790     12795     12785     12788     12814     12815
     12785     12788     12814     12816     12785     12788     12814     12820
     12786     12785     12788     12789     12786     12785     12788     12790
     12786     12785     12788     12814     12787     12785     12788     12789
     12787     12785     12788     12790     12787     12785     12788     12814
     12788     12790     12791     12792     12788     12790     12791     12793
     12788     12790     12791     12794     12788     12790     12795     12796
     12788     12790     12795     12797     12788     12790     12795     12798
     12788     12814     12816     12817     12788     12814     12816     12818
     12788     12814     12816     12819     12788     12814     12820     12821
     12788     12814     12820     12822     12788     12814     12820     12823
     12789     12788     12790     12791     12789     12788     12790     12795
     12789     12788     12814     12815     12789     12788     12814     12816
     12789     12788     12814     12820     12790     12780     12778     12801
     12790     12788     12814     12815     12790     12788     12814     12816
     12790     12788     12814     12820     12790     12795     12798     12799
     12790     12795     12798     12800     12790     12795     12798     12801
     12791     12790     12788     12814     12791     12790     12795     12796
     12791     12790     12795     12797     12791     12790     12795     12798
     12792     12791     12790     12795     12793     12791     12790     12795
     12794     12791     12790     12795     12795     12790     12788     12814
     12795     12798     12801     12802     12795     12798     12801     12803
     12796     12795     12798     12799     12796     12795     12798     12800
     12796     12795     12798     12801     12797     12795     12798     12799
     12797     12795     12798     12800     12797     12795     12798     12801
     12798     12801     12803     12804     12798     12801     12803     12808
     12799     12798     12801     12802     12799     12798     12801     12803
     12800     12798     12801     12802     12800     12798     12801     12803
     12801     12803     12804     12805     12801     12803     12804     12806
     12801     12803     12804     12807     12801     12803     12808     12809
     12801     12803     12808     12810     12801     12803     12808     12811
     12802     12801     12803     12804     12802     12801     12803     12808
     12803     12808     12811     12812     12803     12808     12811     12813
     12804     12803     12808     12809     12804     12803     12808     12810
     12804     12803     12808     12811     12805     12804     12803     12808
     12806     12804     12803     12808     12807     12804     12803     12808
     12809     12808     12811     12812     12809     12808     12811     12813
     12810     12808     12811     12812     12810     12808     12811     12813
     12814     12820     12823     12824     12814     12820     12823     12825
     12814     12820     12823     12826     12815     12814     12816     12817
     12815     12814     12816     12818     12815     12814     12816     12819
     12815     12814     12820     12821     12815     12814     12820     12822
     12815     12814     12820     12823     12816     12814     12820     12821
     12816     12814     12820     12822     12816     12814     12820     12823
     12817     12816     12814     12820     12818     12816     12814     12820
     12819     12816     12814     12820     12820     12823     12826     12827
     12820     12823     12826     12828     12820     12823     12826     12829
     12821     12820     12823     12824     12821     12820     12823     12825
     12821     12820     12823     12826     12822     12820     12823     12824
     12822     12820     12823     12825     12822     12820     12823     12826
     12823     12826     12829     12830     12823     12826     12829     12831
     12823     12826     12829     12835     12824     12823     12826     12827
     12824     12823     12826     12828     12824     12823     12826     12829
     12825     12823     12826     12827     12825     12823     12826     12828
     12825     12823     12826     12829     12826     12829     12831     12832
     12826     12829     12831     12833     12826     12829     12831     12834
     12826     12829     12835     12836     12826     12829     12835     12837
     12826     12829     12835     12838     12827     12826     12829     12830
     12827     12826     12829     12831     12827     12826     12829     12835
     12828     12826     12829     12830     12828     12826     12829     12831
     12828     12826     12829     12835     12830     12829     12831     12832
     12830     12829     12831     12833     12830     12829     12831     12834
     12830     12829     12835     12836     12830     12829     12835     12837
     12830     12829     12835     12838     12831     12829     12835     12836
     12831     12829     12835     12837     12831     12829     12835     12838
     12832     12831     12829     12835     12833     12831     12829     12835
     12834     12831     12829     12835     12839     12843     12846     12847
     12839     12843     12846     12848     12839     12843     12846     12852
     12840     12839     12843     12844     12840     12839     12843     12845
     12840     12839     12843     12846     12841     12839     12843     12844
     12841     12839     12843     12845     12841     12839     12843     12846
     12842     12839     12843     12844     12842     12839     12843     12845
     12842     12839     12843     12846     12843     12846     12852     12849
     12844     12843     12846     12847     12844     12843     12846     12848
     12844     12843     12846     12852     12845     12843     12846     12847
     12845     12843     12846     12848     12845     12843     12846     12852
     12846     12852     12849     12850     12846     12852     12849     12851
     12846     12852     12849     12853     12847     12846     12852     12849
     12848     12846     12852     12849     12849     12853     12854     12855
     12849     12853     12854     12856     12849     12853     12854     12857
     12850     12849     12853     12854     12851     12849     12853     12854
     12852     12849     12853     12854     12853     12854     12857     12858
     12853     12854     12857     12859     12853     12854     12857     12865
     12854     12857     12859     12860     12854     12857     12865     12866
     12854     12857     12865     12867     12854     12857     12865     12868
     12855     12854     12857     12858     12855     12854     12857     12859
     12855     12854     12857     12865     12856     12854     12857     12858
     12856     12854     12857     12859     12856     12854     12857     12865
     12857     12859     12860     12861     12857     12859     12860     12862
     12857     12865     12868     12869     12858     12857     12859     12860
     12858     12857     12865     12866     12858     12857     12865     12867
     12858     12857     12865     12868     12859     12857     12865     12866
     12859     12857     12865     12867     12859     12857     12865     12868
     12859     12860     12862     12863     12859     12860     12862     12864
     12859     12860     12862     12874     12860     12859     12857     12865
     12860     12862     12874     12875     12860     12862     12874     12876
     12860     12862     12874     12877     12861     12860     12862     12863
     12861     12860     12862     12864     12861     12860     12862     12874
     12862     12874     12877     12878     12862     12874     12877     12879
     12862     12874     12877     12880     12863     12862     12874     12875
     12863     12862     12874     12876     12863     12862     12874     12877
     12864     12862     12874     12875     12864     12862     12874     12876
     12864     12862     12874     12877     12865     12868     12869     12870
     12865     12868     12869     12871     12866     12865     12868     12869
     12867     12865     12868     12869     12868     12869     12871     12872
     12868     12869     12871     12873     12868     12869     12871     12921
     12869     12871     12921     12922     12869     12871     12921     12923
     12869     12871     12921     12924     12870     12869     12871     12872
     12870     12869     12871     12873     12870     12869     12871     12921
     12871     12921     12924     12925     12871     12921     12924     12926
     12871     12921     12924     12927     12872     12871     12921     12922
     12872     12871     12921     12923     12872     12871     12921     12924
     12873     12871     12921     12922     12873     12871     12921     12923
     12873     12871     12921     12924     12874     12877     12880     12881
     12874     12877     12880     12882     12875     12874     12877     12878
     12875     12874     12877     12879     12875     12874     12877     12880
     12876     12874     12877     12878     12876     12874     12877     12879
     12876     12874     12877     12880     12877     12880     12882     12883
     12877     12880     12882     12884     12878     12877     12880     12881
     12878     12877     12880     12882     12879     12877     12880     12881
     12879     12877     12880     12882     12880     12882     12884     12885
     12880     12882     12884     12886     12880     12882     12884     12887
     12881     12880     12882     12883     12881     12880     12882     12884
     12882     12884     12887     12888     12882     12884     12887     12889
     12883     12882     12884     12885     12883     12882     12884     12886
     12883     12882     12884     12887     12884     12887     12889     12890
     12884     12887     12889     12891     12885     12884     12887     12888
     12885     12884     12887     12889     12886     12884     12887     12888
     12886     12884     12887     12889     12887     12889     12891     12892
     12887     12889     12891     12893     12887     12889     12891     12894
     12888     12887     12889     12890     12888     12887     12889     12891
     12889     12891     12894     12895     12889     12891     12894     12896
     12890     12889     12891     12892     12890     12889     12891     12893
     12890     12889     12891     12894     12891     12894     12896     12897
     12891     12894     12896     12898     12892     12891     12894     12895
     12892     12891     12894     12896     12893     12891     12894     12895
     12893     12891     12894     12896     12894     12896     12898     12899
     12894     12896     12898     12900     12894     12896     12898     12901
     12895     12894     12896     12897     12895     12894     12896     12898
     12896     12898     12901     12902     12896     12898     12901     12903
     12897     12896     12898     12899     12897     12896     12898     12900
     12897     12896     12898     12901     12898     12901     12903     12904
     12898     12901     12903     12905     12899     12898     12901     12902
     12899     12898     12901     12903     12900     12898     12901     12902
     12900     12898     12901     12903     12901     12903     12905     12906
     12901     12903     12905     12907     12901     12903     12905     12908
     12902     12901     12903     12904     12902     12901     12903     12905
     12903     12905     12908     12909     12903     12905     12908     12910
     12903     12905     12908     12911     12904     12903     12905     12906
     12904     12903     12905     12907     12904     12903     12905     12908
     12905     12908     12911     12912     12905     12908     12911     12913
     12905     12908     12911     12914     12906     12905     12908     12909
     12906     12905     12908     12910     12906     12905     12908     12911
     12907     12905     12908     12909     12907     12905     12908     12910
     12907     12905     12908     12911     12908     12911     12914     12915
     12908     12911     12914     12916     12908     12911     12914     12917
     12909     12908     12911     12912     12909     12908     12911     12913
     12909     12908     12911     12914     12910     12908     12911     12912
     12910     12908     12911     12913     12910     12908     12911     12914
     12911     12914     12917     12918     12911     12914     12917     12919
     12911     12914     12917     12920     12912     12911     12914     12915
     12912     12911     12914     12916     12912     12911     12914     12917
     12913     12911     12914     12915     12913     12911     12914     12916
     12913     12911     12914     12917     12915     12914     12917     12918
     12915     12914     12917     12919     12915     12914     12917     12920
     12916     12914     12917     12918     12916     12914     12917     12919
     12916     12914     12917     12920     12921     12924     12927     12928
     12921     12924     12927     12929     12921     12924     12927     12930
     12922     12921     12924     12925     12922     12921     12924     12926
     12922     12921     12924     12927     12923     12921     12924     12925
     12923     12921     12924     12926     12923     12921     12924     12927
     12924     12927     12930     12931     12924     12927     12930     12932
     12924     12927     12930     12933     12925     12924     12927     12928
     12925     12924     12927     12929     12925     12924     12927     12930
     12926     12924     12927     12928     12926     12924     12927     12929
     12926     12924     12927     12930     12927     12930     12933     12934
     12927     12930     12933     12935     12927     12930     12933     12936
     12928     12927     12930     12931     12928     12927     12930     12932
     12928     12927     12930     12933     12929     12927     12930     12931
     12929     12927     12930     12932     12929     12927     12930     12933
     12930     12933     12936     12937     12930     12933     12936     12938
     12930     12933     12936     12939     12931     12930     12933     12934
     12931     12930     12933     12935     12931     12930     12933     12936
     12932     12930     12933     12934     12932     12930     12933     12935
     12932     12930     12933     12936     12933     12936     12939     12940
     12933     12936     12939     12941     12933     12936     12939     12942
     12934     12933     12936     12937     12934     12933     12936     12938
     12934     12933     12936     12939     12935     12933     12936     12937
     12935     12933     12936     12938     12935     12933     12936     12939
     12936     12939     12942     12943     12936     12939     12942     12944
     12936     12939     12942     12945     12937     12936     12939     12940
     12937     12936     12939     12941     12937     12936     12939     12942
     12938     12936     12939     12940     12938     12936     12939     12941
     12938     12936     12939     12942     12939     12942     12945     12946
     12939     12942     12945     12947     12939     12942     12945     12948
     12940     12939     12942     12943     12940     12939     12942     12944
     12940     12939     12942     12945     12941     12939     12942     12943
     12941     12939     12942     12944     12941     12939     12942     12945
     12942     12945     12948     12949     12942     12945     12948     12950
     12942     12945     12948     12951     12943     12942     12945     12946
     12943     12942     12945     12947     12943     12942     12945     12948
     12944     12942     12945     12946     12944     12942     12945     12947
     12944     12942     12945     12948     12945     12948     12951     12952
     12945     12948     12951     12953     12945     12948     12951     12954
     12946     12945     12948     12949     12946     12945     12948     12950
     12946     12945     12948     12951     12947     12945     12948     12949
     12947     12945     12948     12950     12947     12945     12948     12951
     12948     12951     12954     12955     12948     12951     12954     12956
     12948     12951     12954     12957     12949     12948     12951     12952
     12949     12948     12951     12953     12949     12948     12951     12954
     12950     12948     12951     12952     12950     12948     12951     12953
     12950     12948     12951     12954     12951     12954     12957     12958
     12951     12954     12957     12959     12951     12954     12957     12960
     12952     12951     12954     12955     12952     12951     12954     12956
     12952     12951     12954     12957     12953     12951     12954     12955
     12953     12951     12954     12956     12953     12951     12954     12957
     12954     12957     12960     12961     12954     12957     12960     12962
     12954     12957     12960     12963     12955     12954     12957     12958
     12955     12954     12957     12959     12955     12954     12957     12960
     12956     12954     12957     12958     12956     12954     12957     12959
     12956     12954     12957     12960     12957     12960     12963     12964
     12957     12960     12963     12965     12957     12960     12963     12966
     12958     12957     12960     12961     12958     12957     12960     12962
     12958     12957     12960     12963     12959     12957     12960     12961
     12959     12957     12960     12962     12959     12957     12960     12963
     12960     12963     12966     12967     12960     12963     12966     12968
     12960     12963     12966     12969     12961     12960     12963     12964
     12961     12960     12963     12965     12961     12960     12963     12966
     12962     12960     12963     12964     12962     12960     12963     12965
     12962     12960     12963     12966     12964     12963     12966     12967
     12964     12963     12966     12968     12964     12963     12966     12969
     12965     12963     12966     12967     12965     12963     12966     12968
     12965     12963     12966     12969     12970     12971     12986     12987
     12970     12971     12986     12988     12970     12971     12986     12992
     12971     12970     12974     12975     12971     12970     12974     12976
     12971     12970     12974     12977     12971     12970     12978     12979
     12971     12970     12978     12980     12971     12970     12978     12981
     12971     12970     12982     12983     12971     12970     12982     12984
     12971     12970     12982     12985     12971     12986     12992     12989
     12972     12971     12970     12974     12972     12971     12970     12978
     12972     12971     12970     12982     12972     12971     12986     12987
     12972     12971     12986     12988     12972     12971     12986     12992
     12973     12971     12970     12974     12973     12971     12970     12978
     12973     12971     12970     12982     12973     12971     12986     12987
     12973     12971     12986     12988     12973     12971     12986     12992
     12974     12970     12971     12986     12974     12970     12978     12979
     12974     12970     12978     12980     12974     12970     12978     12981
     12974     12970     12982     12983     12974     12970     12982     12984
     12974     12970     12982     12985     12975     12974     12970     12978
     12975     12974     12970     12982     12976     12974     12970     12978
     12976     12974     12970     12982     12977     12974     12970     12978
     12977     12974     12970     12982     12978     12970     12971     12986
     12978     12970     12982     12983     12978     12970     12982     12984
     12978     12970     12982     12985     12979     12978     12970     12982
     12980     12978     12970     12982     12981     12978     12970     12982
     12982     12970     12971     12986     12986     12992     12989     12990
     12986     12992     12989     12991     12986     12992     12989     12993
     12987     12986     12992     12989     12988     12986     12992     12989
     12989     12993     12994     12995     12989     12993     12994     12996
     12989     12993     12994     12997     12990     12989     12993     12994
     12991     12989     12993     12994     12992     12989     12993     12994
     12993     12994     12997     12998     12993     12994     12997     12999
     12993     12994     12997     13005     12994     12997     12999     13000
     12994     12997     13005     13006     12994     12997     13005     13007
     12994     12997     13005     13008     12995     12994     12997     12998
     12995     12994     12997     12999     12995     12994     12997     13005
     12996     12994     12997     12998     12996     12994     12997     12999
     12996     12994     12997     13005     12997     12999     13000     13001
     12997     12999     13000     13002     12997     13005     13008     13009
     12998     12997     12999     13000     12998     12997     13005     13006
     12998     12997     13005     13007     12998     12997     13005     13008
     12999     12997     13005     13006     12999     12997     13005     13007
     12999     12997     13005     13008     12999     13000     13002     13003
     12999     13000     13002     13004     12999     13000     13002     13014
     13000     12999     12997     13005     13000     13002     13014     13015
     13000     13002     13014     13016     13000     13002     13014     13017
     13001     13000     13002     13003     13001     13000     13002     13004
     13001     13000     13002     13014     13002     13014     13017     13018
     13002     13014     13017     13019     13002     13014     13017     13020
     13003     13002     13014     13015     13003     13002     13014     13016
     13003     13002     13014     13017     13004     13002     13014     13015
     13004     13002     13014     13016     13004     13002     13014     13017
     13005     13008     13009     13010     13005     13008     13009     13011
     13006     13005     13008     13009     13007     13005     13008     13009
     13008     13009     13011     13012     13008     13009     13011     13013
     13008     13009     13011     13061     13009     13011     13061     13062
     13009     13011     13061     13063     13009     13011     13061     13064
     13010     13009     13011     13012     13010     13009     13011     13013
     13010     13009     13011     13061     13011     13061     13064     13065
     13011     13061     13064     13066     13011     13061     13064     13067
     13012     13011     13061     13062     13012     13011     13061     13063
     13012     13011     13061     13064     13013     13011     13061     13062
     13013     13011     13061     13063     13013     13011     13061     13064
     13014     13017     13020     13021     13014     13017     13020     13022
     13015     13014     13017     13018     13015     13014     13017     13019
     13015     13014     13017     13020     13016     13014     13017     13018
     13016     13014     13017     13019     13016     13014     13017     13020
     13017     13020     13022     13023     13017     13020     13022     13024
     13018     13017     13020     13021     13018     13017     13020     13022
     13019     13017     13020     13021     13019     13017     13020     13022
     13020     13022     13024     13025     13020     13022     13024     13026
     13020     13022     13024     13027     13021     13020     13022     13023
     13021     13020     13022     13024     13022     13024     13027     13028
     13022     13024     13027     13029     13023     13022     13024     13025
     13023     13022     13024     13026     13023     13022     13024     13027
     13024     13027     13029     13030     13024     13027     13029     13031
     13025     13024     13027     13028     13025     13024     13027     13029
     13026     13024     13027     13028     13026     13024     13027     13029
     13027     13029     13031     13032     13027     13029     13031     13033
     13027     13029     13031     13034     13028     13027     13029     13030
     13028     13027     13029     13031     13029     13031     13034     13035
     13029     13031     13034     13036     13030     13029     13031     13032
     13030     13029     13031     13033     13030     13029     13031     13034
     13031     13034     13036     13037     13031     13034     13036     13038
     13032     13031     13034     13035     13032     13031     13034     13036
     13033     13031     13034     13035     13033     13031     13034     13036
     13034     13036     13038     13039     13034     13036     13038     13040
     13034     13036     13038     13041     13035     13034     13036     13037
     13035     13034     13036     13038     13036     13038     13041     13042
     13036     13038     13041     13043     13037     13036     13038     13039
     13037     13036     13038     13040     13037     13036     13038     13041
     13038     13041     13043     13044     13038     13041     13043     13045
     13039     13038     13041     13042     13039     13038     13041     13043
     13040     13038     13041     13042     13040     13038     13041     13043
     13041     13043     13045     13046     13041     13043     13045     13047
     13041     13043     13045     13048     13042     13041     13043     13044
     13042     13041     13043     13045     13043     13045     13048     13049
     13043     13045     13048     13050     13043     13045     13048     13051
     13044     13043     13045     13046     13044     13043     13045     13047
     13044     13043     13045     13048     13045     13048     13051     13052
     13045     13048     13051     13053     13045     13048     13051     13054
     13046     13045     13048     13049     13046     13045     13048     13050
     13046     13045     13048     13051     13047     13045     13048     13049
     13047     13045     13048     13050     13047     13045     13048     13051
     13048     13051     13054     13055     13048     13051     13054     13056
     13048     13051     13054     13057     13049     13048     13051     13052
     13049     13048     13051     13053     13049     13048     13051     13054
     13050     13048     13051     13052     13050     13048     13051     13053
     13050     13048     13051     13054     13051     13054     13057     13058
     13051     13054     13057     13059     13051     13054     13057     13060
     13052     13051     13054     13055     13052     13051     13054     13056
     13052     13051     13054     13057     13053     13051     13054     13055
     13053     13051     13054     13056     13053     13051     13054     13057
     13055     13054     13057     13058     13055     13054     13057     13059
     13055     13054     13057     13060     13056     13054     13057     13058
     13056     13054     13057     13059     13056     13054     13057     13060
     13061     13064     13067     13068     13061     13064     13067     13069
     13061     13064     13067     13070     13062     13061     13064     13065
     13062     13061     13064     13066     13062     13061     13064     13067
     13063     13061     13064     13065     13063     13061     13064     13066
     13063     13061     13064     13067     13064     13067     13070     13071
     13064     13067     13070     13072     13064     13067     13070     13073
     13065     13064     13067     13068     13065     13064     13067     13069
     13065     13064     13067     13070     13066     13064     13067     13068
     13066     13064     13067     13069     13066     13064     13067     13070
     13067     13070     13073     13074     13067     13070     13073     13075
     13067     13070     13073     13076     13068     13067     13070     13071
     13068     13067     13070     13072     13068     13067     13070     13073
     13069     13067     13070     13071     13069     13067     13070     13072
     13069     13067     13070     13073     13070     13073     13076     13077
     13070     13073     13076     13078     13070     13073     13076     13079
     13071     13070     13073     13074     13071     13070     13073     13075
     13071     13070     13073     13076     13072     13070     13073     13074
     13072     13070     13073     13075     13072     13070     13073     13076
     13073     13076     13079     13080     13073     13076     13079     13081
     13073     13076     13079     13082     13074     13073     13076     13077
     13074     13073     13076     13078     13074     13073     13076     13079
     13075     13073     13076     13077     13075     13073     13076     13078
     13075     13073     13076     13079     13076     13079     13082     13083
     13076     13079     13082     13084     13076     13079     13082     13085
     13077     13076     13079     13080     13077     13076     13079     13081
     13077     13076     13079     13082     13078     13076     13079     13080
     13078     13076     13079     13081     13078     13076     13079     13082
     13079     13082     13085     13086     13079     13082     13085     13087
     13079     13082     13085     13088     13080     13079     13082     13083
     13080     13079     13082     13084     13080     13079     13082     13085
     13081     13079     13082     13083     13081     13079     13082     13084
     13081     13079     13082     13085     13082     13085     13088     13089
     13082     13085     13088     13090     13082     13085     13088     13091
     13083     13082     13085     13086     13083     13082     13085     13087
     13083     13082     13085     13088     13084     13082     13085     13086
     13084     13082     13085     13087     13084     13082     13085     13088
     13085     13088     13091     13092     13085     13088     13091     13093
     13085     13088     13091     13094     13086     13085     13088     13089
     13086     13085     13088     13090     13086     13085     13088     13091
     13087     13085     13088     13089     13087     13085     13088     13090
     13087     13085     13088     13091     13088     13091     13094     13095
     13088     13091     13094     13096     13088     13091     13094     13097
     13089     13088     13091     13092     13089     13088     13091     13093
     13089     13088     13091     13094     13090     13088     13091     13092
     13090     13088     13091     13093     13090     13088     13091     13094
     13091     13094     13097     13098     13091     13094     13097     13099
     13091     13094     13097     13100     13092     13091     13094     13095
     13092     13091     13094     13096     13092     13091     13094     13097
     13093     13091     13094     13095     13093     13091     13094     13096
     13093     13091     13094     13097     13094     13097     13100     13101
     13094     13097     13100     13102     13094     13097     13100     13103
     13095     13094     13097     13098     13095     13094     13097     13099
     13095     13094     13097     13100     13096     13094     13097     13098
     13096     13094     13097     13099     13096     13094     13097     13100
     13097     13100     13103     13104     13097     13100     13103     13105
     13097     13100     13103     13106     13098     13097     13100     13101
     13098     13097     13100     13102     13098     13097     13100     13103
     13099     13097     13100     13101     13099     13097     13100     13102
     13099     13097     13100     13103     13100     13103     13106     13107
     13100     13103     13106     13108     13100     13103     13106     13109
     13101     13100     13103     13104     13101     13100     13103     13105
     13101     13100     13103     13106     13102     13100     13103     13104
     13102     13100     13103     13105     13102     13100     13103     13106
     13104     13103     13106     13107     13104     13103     13106     13108
     13104     13103     13106     13109     13105     13103     13106     13107
     13105     13103     13106     13108     13105     13103     13106     13109
     13110     13123     13126     13127     13110     13123     13126     13128
     13110     13123     13126     13132     13111     13110     13115     13116
     13111     13110     13115     13117     13111     13110     13115     13118
     13111     13110     13119     13120     13111     13110     13119     13121
     13111     13110     13119     13122     13111     13110     13123     13124
     13111     13110     13123     13125     13111     13110     13123     13126
     13112     13111     13110     13115     13112     13111     13110     13119
     13112     13111     13110     13123     13113     13111     13110     13115
     13113     13111     13110     13119     13113     13111     13110     13123
     13114     13111     13110     13115     13114     13111     13110     13119
     13114     13111     13110     13123     13115     13110     13119     13120
     13115     13110     13119     13121     13115     13110     13119     13122
     13115     13110     13123     13124     13115     13110     13123     13125
     13115     13110     13123     13126     13116     13115     13110     13119
     13116     13115     13110     13123     13117     13115     13110     13119
     13117     13115     13110     13123     13118     13115     13110     13119
     13118     13115     13110     13123     13119     13110     13123     13124
     13119     13110     13123     13125     13119     13110     13123     13126
     13120     13119     13110     13123     13121     13119     13110     13123
     13122     13119     13110     13123     13123     13126     13132     13129
     13124     13123     13126     13127     13124     13123     13126     13128
     13124     13123     13126     13132     13125     13123     13126     13127
     13125     13123     13126     13128     13125     13123     13126     13132
     13126     13132     13129     13130     13126     13132     13129     13131
     13126     13132     13129     13133     13127     13126     13132     13129
     13128     13126     13132     13129     13129     13133     13134     13135
     13129     13133     13134     13136     13129     13133     13134     13137
     13130     13129     13133     13134     13131     13129     13133     13134
     13132     13129     13133     13134     13133     13134     13137     13138
     13133     13134     13137     13139     13133     13134     13137     13145
     13134     13137     13139     13140     13134     13137     13145     13146
     13134     13137     13145     13147     13134     13137     13145     13148
     13135     13134     13137     13138     13135     13134     13137     13139
     13135     13134     13137     13145     13136     13134     13137     13138
     13136     13134     13137     13139     13136     13134     13137     13145
     13137     13139     13140     13141     13137     13139     13140     13142
     13137     13145     13148     13149     13138     13137     13139     13140
     13138     13137     13145     13146     13138     13137     13145     13147
     13138     13137     13145     13148     13139     13137     13145     13146
     13139     13137     13145     13147     13139     13137     13145     13148
     13139     13140     13142     13143     13139     13140     13142     13144
     13139     13140     13142     13154     13140     13139     13137     13145
     13140     13142     13154     13155     13140     13142     13154     13156
     13140     13142     13154     13157     13141     13140     13142     13143
     13141     13140     13142     13144     13141     13140     13142     13154
     13142     13154     13157     13158     13142     13154     13157     13159
     13142     13154     13157     13160     13143     13142     13154     13155
     13143     13142     13154     13156     13143     13142     13154     13157
     13144     13142     13154     13155     13144     13142     13154     13156
     13144     13142     13154     13157     13145     13148     13149     13150
     13145     13148     13149     13151     13146     13145     13148     13149
     13147     13145     13148     13149     13148     13149     13151     13152
     13148     13149     13151     13153     13148     13149     13151     13199
     13149     13151     13199     13200     13149     13151     13199     13201
     13149     13151     13199     13202     13150     13149     13151     13152
     13150     13149     13151     13153     13150     13149     13151     13199
     13151     13199     13202     13203     13151     13199     13202     13204
     13151     13199     13202     13205     13152     13151     13199     13200
     13152     13151     13199     13201     13152     13151     13199     13202
     13153     13151     13199     13200     13153     13151     13199     13201
     13153     13151     13199     13202     13154     13157     13160     13161
     13154     13157     13160     13162     13154     13157     13160     13163
     13155     13154     13157     13158     13155     13154     13157     13159
     13155     13154     13157     13160     13156     13154     13157     13158
     13156     13154     13157     13159     13156     13154     13157     13160
     13157     13160     13163     13164     13157     13160     13163     13165
     13157     13160     13163     13166     13158     13157     13160     13161
     13158     13157     13160     13162     13158     13157     13160     13163
     13159     13157     13160     13161     13159     13157     13160     13162
     13159     13157     13160     13163     13160     13163     13166     13167
     13160     13163     13166     13168     13160     13163     13166     13169
     13161     13160     13163     13164     13161     13160     13163     13165
     13161     13160     13163     13166     13162     13160     13163     13164
     13162     13160     13163     13165     13162     13160     13163     13166
     13163     13166     13169     13170     13163     13166     13169     13171
     13163     13166     13169     13172     13164     13163     13166     13167
     13164     13163     13166     13168     13164     13163     13166     13169
     13165     13163     13166     13167     13165     13163     13166     13168
     13165     13163     13166     13169     13166     13169     13172     13173
     13166     13169     13172     13174     13167     13166     13169     13170
     13167     13166     13169     13171     13167     13166     13169     13172
     13168     13166     13169     13170     13168     13166     13169     13171
     13168     13166     13169     13172     13169     13172     13174     13175
     13169     13172     13174     13176     13170     13169     13172     13173
     13170     13169     13172     13174     13171     13169     13172     13173
     13171     13169     13172     13174     13172     13174     13176     13177
     13172     13174     13176     13178     13172     13174     13176     13179
     13173     13172     13174     13175     13173     13172     13174     13176
     13174     13176     13179     13180     13174     13176     13179     13181
     13175     13174     13176     13177     13175     13174     13176     13178
     13175     13174     13176     13179     13176     13179     13181     13182
     13176     13179     13181     13183     13177     13176     13179     13180
     13177     13176     13179     13181     13178     13176     13179     13180
     13178     13176     13179     13181     13179     13181     13183     13184
     13179     13181     13183     13185     13179     13181     13183     13186
     13180     13179     13181     13182     13180     13179     13181     13183
     13181     13183     13186     13187     13181     13183     13186     13188
     13181     13183     13186     13189     13182     13181     13183     13184
     13182     13181     13183     13185     13182     13181     13183     13186
     13183     13186     13189     13190     13183     13186     13189     13191
     13183     13186     13189     13192     13184     13183     13186     13187
     13184     13183     13186     13188     13184     13183     13186     13189
     13185     13183     13186     13187     13185     13183     13186     13188
     13185     13183     13186     13189     13186     13189     13192     13193
     13186     13189     13192     13194     13186     13189     13192     13195
     13187     13186     13189     13190     13187     13186     13189     13191
     13187     13186     13189     13192     13188     13186     13189     13190
     13188     13186     13189     13191     13188     13186     13189     13192
     13189     13192     13195     13196     13189     13192     13195     13197
     13189     13192     13195     13198     13190     13189     13192     13193
     13190     13189     13192     13194     13190     13189     13192     13195
     13191     13189     13192     13193     13191     13189     13192     13194
     13191     13189     13192     13195     13193     13192     13195     13196
     13193     13192     13195     13197     13193     13192     13195     13198
     13194     13192     13195     13196     13194     13192     13195     13197
     13194     13192     13195     13198     13199     13202     13205     13206
     13199     13202     13205     13207     13199     13202     13205     13208
     13200     13199     13202     13203     13200     13199     13202     13204
     13200     13199     13202     13205     13201     13199     13202     13203
     13201     13199     13202     13204     13201     13199     13202     13205
     13202     13205     13208     13209     13202     13205     13208     13210
     13202     13205     13208     13211     13203     13202     13205     13206
     13203     13202     13205     13207     13203     13202     13205     13208
     13204     13202     13205     13206     13204     13202     13205     13207
     13204     13202     13205     13208     13205     13208     13211     13212
     13205     13208     13211     13213     13205     13208     13211     13214
     13206     13205     13208     13209     13206     13205     13208     13210
     13206     13205     13208     13211     13207     13205     13208     13209
     13207     13205     13208     13210     13207     13205     13208     13211
     13208     13211     13214     13215     13208     13211     13214     13216
     13208     13211     13214     13217     13209     13208     13211     13212
     13209     13208     13211     13213     13209     13208     13211     13214
     13210     13208     13211     13212     13210     13208     13211     13213
     13210     13208     13211     13214     13211     13214     13217     13218
     13211     13214     13217     13219     13211     13214     13217     13220
     13212     13211     13214     13215     13212     13211     13214     13216
     13212     13211     13214     13217     13213     13211     13214     13215
     13213     13211     13214     13216     13213     13211     13214     13217
     13214     13217     13220     13221     13214     13217     13220     13222
     13214     13217     13220     13223     13215     13214     13217     13218
     13215     13214     13217     13219     13215     13214     13217     13220
     13216     13214     13217     13218     13216     13214     13217     13219
     13216     13214     13217     13220     13217     13220     13223     13224
     13217     13220     13223     13225     13217     13220     13223     13226
     13218     13217     13220     13221     13218     13217     13220     13222
     13218     13217     13220     13223     13219     13217     13220     13221
     13219     13217     13220     13222     13219     13217     13220     13223
     13220     13223     13226     13227     13220     13223     13226     13228
     13220     13223     13226     13229     13221     13220     13223     13224
     13221     13220     13223     13225     13221     13220     13223     13226
     13222     13220     13223     13224     13222     13220     13223     13225
     13222     13220     13223     13226     13223     13226     13229     13230
     13223     13226     13229     13231     13223     13226     13229     13232
     13224     13223     13226     13227     13224     13223     13226     13228
     13224     13223     13226     13229     13225     13223     13226     13227
     13225     13223     13226     13228     13225     13223     13226     13229
     13226     13229     13232     13233     13226     13229     13232     13234
     13226     13229     13232     13235     13227     13226     13229     13230
     13227     13226     13229     13231     13227     13226     13229     13232
     13228     13226     13229     13230     13228     13226     13229     13231
     13228     13226     13229     13232     13229     13232     13235     13236
     13229     13232     13235     13237     13229     13232     13235     13238
     13230     13229     13232     13233     13230     13229     13232     13234
     13230     13229     13232     13235     13231     13229     13232     13233
     13231     13229     13232     13234     13231     13229     13232     13235
     13232     13235     13238     13239     13232     13235     13238     13240
     13232     13235     13238     13241     13233     13232     13235     13236
     13233     13232     13235     13237     13233     13232     13235     13238
     13234     13232     13235     13236     13234     13232     13235     13237
     13234     13232     13235     13238     13235     13238     13241     13242
     13235     13238     13241     13243     13235     13238     13241     13244
     13236     13235     13238     13239     13236     13235     13238     13240
     13236     13235     13238     13241     13237     13235     13238     13239
     13237     13235     13238     13240     13237     13235     13238     13241
     13238     13241     13244     13245     13238     13241     13244     13246
     13238     13241     13244     13247     13239     13238     13241     13242
     13239     13238     13241     13243     13239     13238     13241     13244
     13240     13238     13241     13242     13240     13238     13241     13243
     13240     13238     13241     13244     13242     13241     13244     13245
     13242     13241     13244     13246     13242     13241     13244     13247
     13243     13241     13244     13245     13243     13241     13244     13246
     13243     13241     13244     13247     13248     13252     13254     13255
     13248     13252     13254     13256     13248     13252     13257     13258
     13248     13252     13257     13259     13248     13252     13257     13263
     13249     13248     13252     13253     13249     13248     13252     13254
     13249     13248     13252     13257     13250     13248     13252     13253
     13250     13248     13252     13254     13250     13248     13252     13257
     13251     13248     13252     13253     13251     13248     13252     13254
     13251     13248     13252     13257     13252     13257     13263     13260
     13253     13252     13254     13255     13253     13252     13254     13256
     13253     13252     13257     13258     13253     13252     13257     13259
     13253     13252     13257     13263     13254     13252     13257     13258
     13254     13252     13257     13259     13254     13252     13257     13263
     13255     13254     13252     13257     13256     13254     13252     13257
     13257     13263     13260     13261     13257     13263     13260     13262
     13257     13263     13260     13264     13258     13257     13263     13260
     13259     13257     13263     13260     13260     13264     13265     13266
     13260     13264     13265     13267     13260     13264     13265     13268
     13261     13260     13264     13265     13262     13260     13264     13265
     13263     13260     13264     13265     13264     13265     13268     13269
     13264     13265     13268     13270     13264     13265     13268     13276
     13265     13268     13270     13271     13265     13268     13276     13277
     13265     13268     13276     13278     13265     13268     13276     13279
     13266     13265     13268     13269     13266     13265     13268     13270
     13266     13265     13268     13276     13267     13265     13268     13269
     13267     13265     13268     13270     13267     13265     13268     13276
     13268     13270     13271     13272     13268     13270     13271     13273
     13268     13276     13279     13280     13269     13268     13270     13271
     13269     13268     13276     13277     13269     13268     13276     13278
     13269     13268     13276     13279     13270     13268     13276     13277
     13270     13268     13276     13278     13270     13268     13276     13279
     13270     13271     13273     13274     13270     13271     13273     13275
     13270     13271     13273     13285     13271     13270     13268     13276
     13271     13273     13285     13286     13271     13273     13285     13287
     13271     13273     13285     13288     13272     13271     13273     13274
     13272     13271     13273     13275     13272     13271     13273     13285
     13273     13285     13288     13289     13273     13285     13288     13290
     13273     13285     13288     13291     13274     13273     13285     13286
     13274     13273     13285     13287     13274     13273     13285     13288
     13275     13273     13285     13286     13275     13273     13285     13287
     13275     13273     13285     13288     13276     13279     13280     13281
     13276     13279     13280     13282     13277     13276     13279     13280
     13278     13276     13279     13280     13279     13280     13282     13283
     13279     13280     13282     13284     13279     13280     13282     13332
     13280     13282     13332     13333     13280     13282     13332     13334
     13280     13282     13332     13335     13281     13280     13282     13283
     13281     13280     13282     13284     13281     13280     13282     13332
     13282     13332     13335     13336     13282     13332     13335     13337
     13282     13332     13335     13338     13283     13282     13332     13333
     13283     13282     13332     13334     13283     13282     13332     13335
     13284     13282     13332     13333     13284     13282     13332     13334
     13284     13282     13332     13335     13285     13288     13291     13292
     13285     13288     13291     13293     13286     13285     13288     13289
     13286     13285     13288     13290     13286     13285     13288     13291
     13287     13285     13288     13289     13287     13285     13288     13290
     13287     13285     13288     13291     13288     13291     13293     13294
     13288     13291     13293     13295     13289     13288     13291     13292
     13289     13288     13291     13293     13290     13288     13291     13292
     13290     13288     13291     13293     13291     13293     13295     13296
     13291     13293     13295     13297     13291     13293     13295     13298
     13292     13291     13293     13294     13292     13291     13293     13295
     13293     13295     13298     13299     13293     13295     13298     13300
     13294     13293     13295     13296     13294     13293     13295     13297
     13294     13293     13295     13298     13295     13298     13300     13301
     13295     13298     13300     13302     13296     13295     13298     13299
     13296     13295     13298     13300     13297     13295     13298     13299
     13297     13295     13298     13300     13298     13300     13302     13303
     13298     13300     13302     13304     13298     13300     13302     13305
     13299     13298     13300     13301     13299     13298     13300     13302
     13300     13302     13305     13306     13300     13302     13305     13307
     13301     13300     13302     13303     13301     13300     13302     13304
     13301     13300     13302     13305     13302     13305     13307     13308
     13302     13305     13307     13309     13303     13302     13305     13306
     13303     13302     13305     13307     13304     13302     13305     13306
     13304     13302     13305     13307     13305     13307     13309     13310
     13305     13307     13309     13311     13305     13307     13309     13312
     13306     13305     13307     13308     13306     13305     13307     13309
     13307     13309     13312     13313     13307     13309     13312     13314
     13308     13307     13309     13310     13308     13307     13309     13311
     13308     13307     13309     13312     13309     13312     13314     13315
     13309     13312     13314     13316     13310     13309     13312     13313
     13310     13309     13312     13314     13311     13309     13312     13313
     13311     13309     13312     13314     13312     13314     13316     13317
     13312     13314     13316     13318     13312     13314     13316     13319
     13313     13312     13314     13315     13313     13312     13314     13316
     13314     13316     13319     13320     13314     13316     13319     13321
     13314     13316     13319     13322     13315     13314     13316     13317
     13315     13314     13316     13318     13315     13314     13316     13319
     13316     13319     13322     13323     13316     13319     13322     13324
     13316     13319     13322     13325     13317     13316     13319     13320
     13317     13316     13319     13321     13317     13316     13319     13322
     13318     13316     13319     13320     13318     13316     13319     13321
     13318     13316     13319     13322     13319     13322     13325     13326
     13319     13322     13325     13327     13319     13322     13325     13328
     13320     13319     13322     13323     13320     13319     13322     13324
     13320     13319     13322     13325     13321     13319     13322     13323
     13321     13319     13322     13324     13321     13319     13322     13325
     13322     13325     13328     13329     13322     13325     13328     13330
     13322     13325     13328     13331     13323     13322     13325     13326
     13323     13322     13325     13327     13323     13322     13325     13328
     13324     13322     13325     13326     13324     13322     13325     13327
     13324     13322     13325     13328     13326     13325     13328     13329
     13326     13325     13328     13330     13326     13325     13328     13331
     13327     13325     13328     13329     13327     13325     13328     13330
     13327     13325     13328     13331     13332     13335     13338     13339
     13332     13335     13338     13340     13332     13335     13338     13341
     13333     13332     13335     13336     13333     13332     13335     13337
     13333     13332     13335     13338     13334     13332     13335     13336
     13334     13332     13335     13337     13334     13332     13335     13338
     13335     13338     13341     13342     13335     13338     13341     13343
     13335     13338     13341     13344     13336     13335     13338     13339
     13336     13335     13338     13340     13336     13335     13338     13341
     13337     13335     13338     13339     13337     13335     13338     13340
     13337     13335     13338     13341     13338     13341     13344     13345
     13338     13341     13344     13346     13338     13341     13344     13347
     13339     13338     13341     13342     13339     13338     13341     13343
     13339     13338     13341     13344     13340     13338     13341     13342
     13340     13338     13341     13343     13340     13338     13341     13344
     13341     13344     13347     13348     13341     13344     13347     13349
     13341     13344     13347     13350     13342     13341     13344     13345
     13342     13341     13344     13346     13342     13341     13344     13347
     13343     13341     13344     13345     13343     13341     13344     13346
     13343     13341     13344     13347     13344     13347     13350     13351
     13344     13347     13350     13352     13344     13347     13350     13353
     13345     13344     13347     13348     13345     13344     13347     13349
     13345     13344     13347     13350     13346     13344     13347     13348
     13346     13344     13347     13349     13346     13344     13347     13350
     13347     13350     13353     13354     13347     13350     13353     13355
     13347     13350     13353     13356     13348     13347     13350     13351
     13348     13347     13350     13352     13348     13347     13350     13353
     13349     13347     13350     13351     13349     13347     13350     13352
     13349     13347     13350     13353     13350     13353     13356     13357
     13350     13353     13356     13358     13350     13353     13356     13359
     13351     13350     13353     13354     13351     13350     13353     13355
     13351     13350     13353     13356     13352     13350     13353     13354
     13352     13350     13353     13355     13352     13350     13353     13356
     13353     13356     13359     13360     13353     13356     13359     13361
     13353     13356     13359     13362     13354     13353     13356     13357
     13354     13353     13356     13358     13354     13353     13356     13359
     13355     13353     13356     13357     13355     13353     13356     13358
     13355     13353     13356     13359     13356     13359     13362     13363
     13356     13359     13362     13364     13356     13359     13362     13365
     13357     13356     13359     13360     13357     13356     13359     13361
     13357     13356     13359     13362     13358     13356     13359     13360
     13358     13356     13359     13361     13358     13356     13359     13362
     13359     13362     13365     13366     13359     13362     13365     13367
     13359     13362     13365     13368     13360     13359     13362     13363
     13360     13359     13362     13364     13360     13359     13362     13365
     13361     13359     13362     13363     13361     13359     13362     13364
     13361     13359     13362     13365     13362     13365     13368     13369
     13362     13365     13368     13370     13362     13365     13368     13371
     13363     13362     13365     13366     13363     13362     13365     13367
     13363     13362     13365     13368     13364     13362     13365     13366
     13364     13362     13365     13367     13364     13362     13365     13368
     13365     13368     13371     13372     13365     13368     13371     13373
     13365     13368     13371     13374     13366     13365     13368     13369
     13366     13365     13368     13370     13366     13365     13368     13371
     13367     13365     13368     13369     13367     13365     13368     13370
     13367     13365     13368     13371     13368     13371     13374     13375
     13368     13371     13374     13376     13368     13371     13374     13377
     13369     13368     13371     13372     13369     13368     13371     13373
     13369     13368     13371     13374     13370     13368     13371     13372
     13370     13368     13371     13373     13370     13368     13371     13374
     13371     13374     13377     13378     13371     13374     13377     13379
     13371     13374     13377     13380     13372     13371     13374     13375
     13372     13371     13374     13376     13372     13371     13374     13377
     13373     13371     13374     13375     13373     13371     13374     13376
     13373     13371     13374     13377     13375     13374     13377     13378
     13375     13374     13377     13379     13375     13374     13377     13380
     13376     13374     13377     13378     13376     13374     13377     13379
     13376     13374     13377     13380     13381     13385     13388     13389
     13381     13385     13388     13390     13381     13385     13388     13394
     13382     13381     13385     13386     13382     13381     13385     13387
     13382     13381     13385     13388     13383     13381     13385     13386
     13383     13381     13385     13387     13383     13381     13385     13388
     13384     13381     13385     13386     13384     13381     13385     13387
     13384     13381     13385     13388     13385     13388     13394     13391
     13386     13385     13388     13389     13386     13385     13388     13390
     13386     13385     13388     13394     13387     13385     13388     13389
     13387     13385     13388     13390     13387     13385     13388     13394
     13388     13394     13391     13392     13388     13394     13391     13393
     13388     13394     13391     13395     13389     13388     13394     13391
     13390     13388     13394     13391     13391     13395     13396     13397
     13391     13395     13396     13398     13391     13395     13396     13399
     13392     13391     13395     13396     13393     13391     13395     13396
     13394     13391     13395     13396     13395     13396     13399     13400
     13395     13396     13399     13401     13395     13396     13399     13407
     13396     13399     13401     13402     13396     13399     13407     13408
     13396     13399     13407     13409     13396     13399     13407     13410
     13397     13396     13399     13400     13397     13396     13399     13401
     13397     13396     13399     13407     13398     13396     13399     13400
     13398     13396     13399     13401     13398     13396     13399     13407
     13399     13401     13402     13403     13399     13401     13402     13404
     13399     13407     13410     13411     13400     13399     13401     13402
     13400     13399     13407     13408     13400     13399     13407     13409
     13400     13399     13407     13410     13401     13399     13407     13408
     13401     13399     13407     13409     13401     13399     13407     13410
     13401     13402     13404     13405     13401     13402     13404     13406
     13401     13402     13404     13416     13402     13401     13399     13407
     13402     13404     13416     13417     13402     13404     13416     13418
     13402     13404     13416     13419     13403     13402     13404     13405
     13403     13402     13404     13406     13403     13402     13404     13416
     13404     13416     13419     13420     13404     13416     13419     13421
     13404     13416     13419     13422     13405     13404     13416     13417
     13405     13404     13416     13418     13405     13404     13416     13419
     13406     13404     13416     13417     13406     13404     13416     13418
     13406     13404     13416     13419     13407     13410     13411     13412
     13407     13410     13411     13413     13408     13407     13410     13411
     13409     13407     13410     13411     13410     13411     13413     13414
     13410     13411     13413     13415     13410     13411     13413     13463
     13411     13413     13463     13464     13411     13413     13463     13465
     13411     13413     13463     13466     13412     13411     13413     13414
     13412     13411     13413     13415     13412     13411     13413     13463
     13413     13463     13466     13467     13413     13463     13466     13468
     13413     13463     13466     13469     13414     13413     13463     13464
     13414     13413     13463     13465     13414     13413     13463     13466
     13415     13413     13463     13464     13415     13413     13463     13465
     13415     13413     13463     13466     13416     13419     13422     13423
     13416     13419     13422     13424     13416     13419     13422     13425
     13417     13416     13419     13420     13417     13416     13419     13421
     13417     13416     13419     13422     13418     13416     13419     13420
     13418     13416     13419     13421     13418     13416     13419     13422
     13419     13422     13425     13426     13419     13422     13425     13427
     13419     13422     13425     13428     13420     13419     13422     13423
     13420     13419     13422     13424     13420     13419     13422     13425
     13421     13419     13422     13423     13421     13419     13422     13424
     13421     13419     13422     13425     13422     13425     13428     13429
     13422     13425     13428     13430     13422     13425     13428     13431
     13423     13422     13425     13426     13423     13422     13425     13427
     13423     13422     13425     13428     13424     13422     13425     13426
     13424     13422     13425     13427     13424     13422     13425     13428
     13425     13428     13431     13432     13425     13428     13431     13433
     13425     13428     13431     13434     13426     13425     13428     13429
     13426     13425     13428     13430     13426     13425     13428     13431
     13427     13425     13428     13429     13427     13425     13428     13430
     13427     13425     13428     13431     13428     13431     13434     13435
     13428     13431     13434     13436     13429     13428     13431     13432
     13429     13428     13431     13433     13429     13428     13431     13434
     13430     13428     13431     13432     13430     13428     13431     13433
     13430     13428     13431     13434     13431     13434     13436     13437
     13431     13434     13436     13438     13432     13431     13434     13435
     13432     13431     13434     13436     13433     13431     13434     13435
     13433     13431     13434     13436     13434     13436     13438     13439
     13434     13436     13438     13440     13434     13436     13438     13441
     13435     13434     13436     13437     13435     13434     13436     13438
     13436     13438     13441     13442     13436     13438     13441     13443
     13436     13438     13441     13444     13437     13436     13438     13439
     13437     13436     13438     13440     13437     13436     13438     13441
     13438     13441     13444     13445     13438     13441     13444     13446
     13438     13441     13444     13447     13439     13438     13441     13442
     13439     13438     13441     13443     13439     13438     13441     13444
     13440     13438     13441     13442     13440     13438     13441     13443
     13440     13438     13441     13444     13441     13444     13447     13448
     13441     13444     13447     13449     13441     13444     13447     13450
     13442     13441     13444     13445     13442     13441     13444     13446
     13442     13441     13444     13447     13443     13441     13444     13445
     13443     13441     13444     13446     13443     13441     13444     13447
     13444     13447     13450     13451     13444     13447     13450     13452
     13444     13447     13450     13453     13445     13444     13447     13448
     13445     13444     13447     13449     13445     13444     13447     13450
     13446     13444     13447     13448     13446     13444     13447     13449
     13446     13444     13447     13450     13447     13450     13453     13454
     13447     13450     13453     13455     13447     13450     13453     13456
     13448     13447     13450     13451     13448     13447     13450     13452
     13448     13447     13450     13453     13449     13447     13450     13451
     13449     13447     13450     13452     13449     13447     13450     13453
     13450     13453     13456     13457     13450     13453     13456     13458
     13450     13453     13456     13459     13451     13450     13453     13454
     13451     13450     13453     13455     13451     13450     13453     13456
     13452     13450     13453     13454     13452     13450     13453     13455
     13452     13450     13453     13456     13453     13456     13459     13460
     13453     13456     13459     13461     13453     13456     13459     13462
     13454     13453     13456     13457     13454     13453     13456     13458
     13454     13453     13456     13459     13455     13453     13456     13457
     13455     13453     13456     13458     13455     13453     13456     13459
     13457     13456     13459     13460     13457     13456     13459     13461
     13457     13456     13459     13462     13458     13456     13459     13460
     13458     13456     13459     13461     13458     13456     13459     13462
     13463     13466     13469     13470     13463     13466     13469     13471
     13463     13466     13469     13472     13464     13463     13466     13467
     13464     13463     13466     13468     13464     13463     13466     13469
     13465     13463     13466     13467     13465     13463     13466     13468
     13465     13463     13466     13469     13466     13469     13472     13473
     13466     13469     13472     13474     13466     13469     13472     13475
     13467     13466     13469     13470     13467     13466     13469     13471
     13467     13466     13469     13472     13468     13466     13469     13470
     13468     13466     13469     13471     13468     13466     13469     13472
     13469     13472     13475     13476     13469     13472     13475     13477
     13469     13472     13475     13478     13470     13469     13472     13473
     13470     13469     13472     13474     13470     13469     13472     13475
     13471     13469     13472     13473     13471     13469     13472     13474
     13471     13469     13472     13475     13472     13475     13478     13479
     13472     13475     13478     13480     13472     13475     13478     13481
     13473     13472     13475     13476     13473     13472     13475     13477
     13473     13472     13475     13478     13474     13472     13475     13476
     13474     13472     13475     13477     13474     13472     13475     13478
     13475     13478     13481     13482     13475     13478     13481     13483
     13475     13478     13481     13484     13476     13475     13478     13479
     13476     13475     13478     13480     13476     13475     13478     13481
     13477     13475     13478     13479     13477     13475     13478     13480
     13477     13475     13478     13481     13478     13481     13484     13485
     13478     13481     13484     13486     13478     13481     13484     13487
     13479     13478     13481     13482     13479     13478     13481     13483
     13479     13478     13481     13484     13480     13478     13481     13482
     13480     13478     13481     13483     13480     13478     13481     13484
     13481     13484     13487     13488     13481     13484     13487     13489
     13481     13484     13487     13490     13482     13481     13484     13485
     13482     13481     13484     13486     13482     13481     13484     13487
     13483     13481     13484     13485     13483     13481     13484     13486
     13483     13481     13484     13487     13484     13487     13490     13491
     13484     13487     13490     13492     13484     13487     13490     13493
     13485     13484     13487     13488     13485     13484     13487     13489
     13485     13484     13487     13490     13486     13484     13487     13488
     13486     13484     13487     13489     13486     13484     13487     13490
     13487     13490     13493     13494     13487     13490     13493     13495
     13487     13490     13493     13496     13488     13487     13490     13491
     13488     13487     13490     13492     13488     13487     13490     13493
     13489     13487     13490     13491     13489     13487     13490     13492
     13489     13487     13490     13493     13490     13493     13496     13497
     13490     13493     13496     13498     13490     13493     13496     13499
     13491     13490     13493     13494     13491     13490     13493     13495
     13491     13490     13493     13496     13492     13490     13493     13494
     13492     13490     13493     13495     13492     13490     13493     13496
     13493     13496     13499     13500     13493     13496     13499     13501
     13493     13496     13499     13502     13494     13493     13496     13497
     13494     13493     13496     13498     13494     13493     13496     13499
     13495     13493     13496     13497     13495     13493     13496     13498
     13495     13493     13496     13499     13496     13499     13502     13503
     13496     13499     13502     13504     13496     13499     13502     13505
     13497     13496     13499     13500     13497     13496     13499     13501
     13497     13496     13499     13502     13498     13496     13499     13500
     13498     13496     13499     13501     13498     13496     13499     13502
     13499     13502     13505     13506     13499     13502     13505     13507
     13499     13502     13505     13508     13500     13499     13502     13503
     13500     13499     13502     13504     13500     13499     13502     13505
     13501     13499     13502     13503     13501     13499     13502     13504
     13501     13499     13502     13505     13502     13505     13508     13509
     13502     13505     13508     13510     13502     13505     13508     13511
     13503     13502     13505     13506     13503     13502     13505     13507
     13503     13502     13505     13508     13504     13502     13505     13506
     13504     13502     13505     13507     13504     13502     13505     13508
     13506     13505     13508     13509     13506     13505     13508     13510
     13506     13505     13508     13511     13507     13505     13508     13509
     13507     13505     13508     13510     13507     13505     13508     13511
     13512     13525     13528     13529     13512     13525     13528     13530
     13512     13525     13528     13535     13513     13512     13517     13518
     13513     13512     13517     13519     13513     13512     13517     13520
     13513     13512     13521     13522     13513     13512     13521     13523
     13513     13512     13521     13524     13513     13512     13525     13526
     13513     13512     13525     13527     13513     13512     13525     13528
     13514     13513     13512     13517     13514     13513     13512     13521
     13514     13513     13512     13525     13515     13513     13512     13517
     13515     13513     13512     13521     13515     13513     13512     13525
     13516     13513     13512     13517     13516     13513     13512     13521
     13516     13513     13512     13525     13517     13512     13521     13522
     13517     13512     13521     13523     13517     13512     13521     13524
     13517     13512     13525     13526     13517     13512     13525     13527
     13517     13512     13525     13528     13518     13517     13512     13521
     13518     13517     13512     13525     13519     13517     13512     13521
     13519     13517     13512     13525     13520     13517     13512     13521
     13520     13517     13512     13525     13521     13512     13525     13526
     13521     13512     13525     13527     13521     13512     13525     13528
     13522     13521     13512     13525     13523     13521     13512     13525
     13524     13521     13512     13525     13525     13528     13535     13531
     13526     13525     13528     13529     13526     13525     13528     13530
     13526     13525     13528     13535     13527     13525     13528     13529
     13527     13525     13528     13530     13527     13525     13528     13535
     13528     13535     13531     13532     13528     13535     13531     13533
     13528     13535     13531     13534     13529     13528     13535     13531
     13530     13528     13535     13531     13531     13534     13536     13537
     13531     13534     13536     13538     13531     13534     13536     13541
     13532     13531     13534     13536     13533     13531     13534     13536
     13534     13536     13541     13539     13534     13536     13541     13542
     13534     13536     13541     13543     13535     13531     13534     13536
     13536     13541     13539     13540     13536     13541     13539     13591
     13536     13541     13543     13544     13536     13541     13543     13545
     13536     13541     13543     13547     13537     13536     13541     13539
     13537     13536     13541     13542     13537     13536     13541     13543
     13538     13536     13541     13539     13538     13536     13541     13542
     13538     13536     13541     13543     13539     13541     13543     13544
     13539     13541     13543     13545     13539     13541     13543     13547
     13539     13591     13593     13594     13539     13591     13593     13595
     13539     13591     13593     13596     13540     13539     13541     13542
     13540     13539     13541     13543     13540     13539     13591     13592
     13540     13539     13591     13593     13541     13539     13591     13592
     13541     13539     13591     13593     13541     13543     13545     13546
     13541     13543     13547     13548     13541     13543     13547     13549
     13542     13541     13539     13591     13542     13541     13543     13544
     13542     13541     13543     13545     13542     13541     13543     13547
     13543     13541     13539     13591     13543     13547     13549     13550
     13543     13547     13549     13551     13544     13543     13545     13546
     13544     13543     13547     13548     13544     13543     13547     13549
     13545     13543     13547     13548     13545     13543     13547     13549
     13546     13545     13543     13547     13547     13549     13551     13552
     13547     13549     13551     13553     13547     13549     13551     13554
     13548     13547     13549     13550     13548     13547     13549     13551
     13549     13551     13554     13555     13549     13551     13554     13556
     13549     13551     13554     13557     13550     13549     13551     13552
     13550     13549     13551     13553     13550     13549     13551     13554
     13551     13554     13557     13558     13551     13554     13557     13559
     13551     13554     13557     13560     13552     13551     13554     13555
     13552     13551     13554     13556     13552     13551     13554     13557
     13553     13551     13554     13555     13553     13551     13554     13556
     13553     13551     13554     13557     13554     13557     13560     13561
     13554     13557     13560     13562     13554     13557     13560     13563
     13555     13554     13557     13558     13555     13554     13557     13559
     13555     13554     13557     13560     13556     13554     13557     13558
     13556     13554     13557     13559     13556     13554     13557     13560
     13557     13560     13563     13564     13557     13560     13563     13565
     13557     13560     13563     13566     13558     13557     13560     13561
     13558     13557     13560     13562     13558     13557     13560     13563
     13559     13557     13560     13561     13559     13557     13560     13562
     13559     13557     13560     13563     13560     13563     13566     13567
     13560     13563     13566     13568     13560     13563     13566     13569
     13561     13560     13563     13564     13561     13560     13563     13565
     13561     13560     13563     13566     13562     13560     13563     13564
     13562     13560     13563     13565     13562     13560     13563     13566
     13563     13566     13569     13570     13563     13566     13569     13571
     13563     13566     13569     13572     13564     13563     13566     13567
     13564     13563     13566     13568     13564     13563     13566     13569
     13565     13563     13566     13567     13565     13563     13566     13568
     13565     13563     13566     13569     13566     13569     13572     13573
     13566     13569     13572     13574     13566     13569     13572     13575
     13567     13566     13569     13570     13567     13566     13569     13571
     13567     13566     13569     13572     13568     13566     13569     13570
     13568     13566     13569     13571     13568     13566     13569     13572
     13569     13572     13575     13576     13569     13572     13575     13577
     13569     13572     13575     13578     13570     13569     13572     13573
     13570     13569     13572     13574     13570     13569     13572     13575
     13571     13569     13572     13573     13571     13569     13572     13574
     13571     13569     13572     13575     13572     13575     13578     13579
     13572     13575     13578     13580     13572     13575     13578     13581
     13573     13572     13575     13576     13573     13572     13575     13577
     13573     13572     13575     13578     13574     13572     13575     13576
     13574     13572     13575     13577     13574     13572     13575     13578
     13575     13578     13581     13582     13575     13578     13581     13583
     13575     13578     13581     13584     13576     13575     13578     13579
     13576     13575     13578     13580     13576     13575     13578     13581
     13577     13575     13578     13579     13577     13575     13578     13580
     13577     13575     13578     13581     13578     13581     13584     13585
     13578     13581     13584     13586     13578     13581     13584     13587
     13579     13578     13581     13582     13579     13578     13581     13583
     13579     13578     13581     13584     13580     13578     13581     13582
     13580     13578     13581     13583     13580     13578     13581     13584
     13581     13584     13587     13588     13581     13584     13587     13589
     13581     13584     13587     13590     13582     13581     13584     13585
     13582     13581     13584     13586     13582     13581     13584     13587
     13583     13581     13584     13585     13583     13581     13584     13586
     13583     13581     13584     13587     13585     13584     13587     13588
     13585     13584     13587     13589     13585     13584     13587     13590
     13586     13584     13587     13588     13586     13584     13587     13589
     13586     13584     13587     13590     13591     13593     13596     13597
     13591     13593     13596     13598     13591     13593     13596     13599
     13592     13591     13593     13594     13592     13591     13593     13595
     13592     13591     13593     13596     13593     13596     13599     13600
     13593     13596     13599     13601     13593     13596     13599     13602
     13594     13593     13596     13597     13594     13593     13596     13598
     13594     13593     13596     13599     13595     13593     13596     13597
     13595     13593     13596     13598     13595     13593     13596     13599
     13596     13599     13602     13603     13596     13599     13602     13604
     13596     13599     13602     13605     13597     13596     13599     13600
     13597     13596     13599     13601     13597     13596     13599     13602
     13598     13596     13599     13600     13598     13596     13599     13601
     13598     13596     13599     13602     13599     13602     13605     13606
     13599     13602     13605     13607     13599     13602     13605     13608
     13600     13599     13602     13603     13600     13599     13602     13604
     13600     13599     13602     13605     13601     13599     13602     13603
     13601     13599     13602     13604     13601     13599     13602     13605
     13602     13605     13608     13609     13602     13605     13608     13610
     13602     13605     13608     13611     13603     13602     13605     13606
     13603     13602     13605     13607     13603     13602     13605     13608
     13604     13602     13605     13606     13604     13602     13605     13607
     13604     13602     13605     13608     13605     13608     13611     13612
     13605     13608     13611     13613     13605     13608     13611     13614
     13606     13605     13608     13609     13606     13605     13608     13610
     13606     13605     13608     13611     13607     13605     13608     13609
     13607     13605     13608     13610     13607     13605     13608     13611
     13608     13611     13614     13615     13608     13611     13614     13616
     13609     13608     13611     13612     13609     13608     13611     13613
     13609     13608     13611     13614     13610     13608     13611     13612
     13610     13608     13611     13613     13610     13608     13611     13614
     13611     13614     13616     13617     13611     13614     13616     13618
     13612     13611     13614     13615     13612     13611     13614     13616
     13613     13611     13614     13615     13613     13611     13614     13616
     13614     13616     13618     13619     13614     13616     13618     13620
     13614     13616     13618     13621     13615     13614     13616     13617
     13615     13614     13616     13618     13616     13618     13621     13622
     13616     13618     13621     13623     13616     13618     13621     13624
     13617     13616     13618     13619     13617     13616     13618     13620
     13617     13616     13618     13621     13618     13621     13624     13625
     13618     13621     13624     13626     13618     13621     13624     13627
     13619     13618     13621     13622     13619     13618     13621     13623
     13619     13618     13621     13624     13620     13618     13621     13622
     13620     13618     13621     13623     13620     13618     13621     13624
     13621     13624     13627     13628     13621     13624     13627     13629
     13621     13624     13627     13630     13622     13621     13624     13625
     13622     13621     13624     13626     13622     13621     13624     13627
     13623     13621     13624     13625     13623     13621     13624     13626
     13623     13621     13624     13627     13624     13627     13630     13631
     13624     13627     13630     13632     13624     13627     13630     13633
     13625     13624     13627     13628     13625     13624     13627     13629
     13625     13624     13627     13630     13626     13624     13627     13628
     13626     13624     13627     13629     13626     13624     13627     13630
     13627     13630     13633     13634     13627     13630     13633     13635
     13627     13630     13633     13636     13628     13627     13630     13631
     13628     13627     13630     13632     13628     13627     13630     13633
     13629     13627     13630     13631     13629     13627     13630     13632
     13629     13627     13630     13633     13630     13633     13636     13637
     13630     13633     13636     13638     13630     13633     13636     13639
     13631     13630     13633     13634     13631     13630     13633     13635
     13631     13630     13633     13636     13632     13630     13633     13634
     13632     13630     13633     13635     13632     13630     13633     13636
     13633     13636     13639     13640     13633     13636     13639     13641
     13633     13636     13639     13642     13634     13633     13636     13637
     13634     13633     13636     13638     13634     13633     13636     13639
     13635     13633     13636     13637     13635     13633     13636     13638
     13635     13633     13636     13639     13637     13636     13639     13640
     13637     13636     13639     13641     13637     13636     13639     13642
     13638     13636     13639     13640     13638     13636     13639     13641
     13638     13636     13639     13642     13643     13656     13659     13660
     13643     13656     13659     13661     13643     13656     13659     13666
     13644     13643     13648     13649     13644     13643     13648     13650
     13644     13643     13648     13651     13644     13643     13652     13653
     13644     13643     13652     13654     13644     13643     13652     13655
     13644     13643     13656     13657     13644     13643     13656     13658
     13644     13643     13656     13659     13645     13644     13643     13648
     13645     13644     13643     13652     13645     13644     13643     13656
     13646     13644     13643     13648     13646     13644     13643     13652
     13646     13644     13643     13656     13647     13644     13643     13648
     13647     13644     13643     13652     13647     13644     13643     13656
     13648     13643     13652     13653     13648     13643     13652     13654
     13648     13643     13652     13655     13648     13643     13656     13657
     13648     13643     13656     13658     13648     13643     13656     13659
     13649     13648     13643     13652     13649     13648     13643     13656
     13650     13648     13643     13652     13650     13648     13643     13656
     13651     13648     13643     13652     13651     13648     13643     13656
     13652     13643     13656     13657     13652     13643     13656     13658
     13652     13643     13656     13659     13653     13652     13643     13656
     13654     13652     13643     13656     13655     13652     13643     13656
     13656     13659     13666     13662     13657     13656     13659     13660
     13657     13656     13659     13661     13657     13656     13659     13666
     13658     13656     13659     13660     13658     13656     13659     13661
     13658     13656     13659     13666     13659     13666     13662     13663
     13659     13666     13662     13664     13659     13666     13662     13665
     13660     13659     13666     13662     13661     13659     13666     13662
     13662     13665     13667     13668     13662     13665     13667     13669
     13662     13665     13667     13672     13663     13662     13665     13667
     13664     13662     13665     13667     13665     13667     13672     13670
     13665     13667     13672     13673     13665     13667     13672     13674
     13666     13662     13665     13667     13667     13672     13670     13671
     13667     13672     13670     13722     13667     13672     13674     13675
     13667     13672     13674     13676     13667     13672     13674     13678
     13668     13667     13672     13670     13668     13667     13672     13673
     13668     13667     13672     13674     13669     13667     13672     13670
     13669     13667     13672     13673     13669     13667     13672     13674
     13670     13672     13674     13675     13670     13672     13674     13676
     13670     13672     13674     13678     13670     13722     13724     13725
     13670     13722     13724     13726     13670     13722     13724     13727
     13671     13670     13672     13673     13671     13670     13672     13674
     13671     13670     13722     13723     13671     13670     13722     13724
     13672     13670     13722     13723     13672     13670     13722     13724
     13672     13674     13676     13677     13672     13674     13678     13679
     13672     13674     13678     13680     13673     13672     13670     13722
     13673     13672     13674     13675     13673     13672     13674     13676
     13673     13672     13674     13678     13674     13672     13670     13722
     13674     13678     13680     13681     13674     13678     13680     13682
     13675     13674     13676     13677     13675     13674     13678     13679
     13675     13674     13678     13680     13676     13674     13678     13679
     13676     13674     13678     13680     13677     13676     13674     13678
     13678     13680     13682     13683     13678     13680     13682     13684
     13678     13680     13682     13685     13679     13678     13680     13681
     13679     13678     13680     13682     13680     13682     13685     13686
     13680     13682     13685     13687     13680     13682     13685     13688
     13681     13680     13682     13683     13681     13680     13682     13684
     13681     13680     13682     13685     13682     13685     13688     13689
     13682     13685     13688     13690     13682     13685     13688     13691
     13683     13682     13685     13686     13683     13682     13685     13687
     13683     13682     13685     13688     13684     13682     13685     13686
     13684     13682     13685     13687     13684     13682     13685     13688
     13685     13688     13691     13692     13685     13688     13691     13693
     13685     13688     13691     13694     13686     13685     13688     13689
     13686     13685     13688     13690     13686     13685     13688     13691
     13687     13685     13688     13689     13687     13685     13688     13690
     13687     13685     13688     13691     13688     13691     13694     13695
     13688     13691     13694     13696     13688     13691     13694     13697
     13689     13688     13691     13692     13689     13688     13691     13693
     13689     13688     13691     13694     13690     13688     13691     13692
     13690     13688     13691     13693     13690     13688     13691     13694
     13691     13694     13697     13698     13691     13694     13697     13699
     13691     13694     13697     13700     13692     13691     13694     13695
     13692     13691     13694     13696     13692     13691     13694     13697
     13693     13691     13694     13695     13693     13691     13694     13696
     13693     13691     13694     13697     13694     13697     13700     13701
     13694     13697     13700     13702     13694     13697     13700     13703
     13695     13694     13697     13698     13695     13694     13697     13699
     13695     13694     13697     13700     13696     13694     13697     13698
     13696     13694     13697     13699     13696     13694     13697     13700
     13697     13700     13703     13704     13697     13700     13703     13705
     13697     13700     13703     13706     13698     13697     13700     13701
     13698     13697     13700     13702     13698     13697     13700     13703
     13699     13697     13700     13701     13699     13697     13700     13702
     13699     13697     13700     13703     13700     13703     13706     13707
     13700     13703     13706     13708     13700     13703     13706     13709
     13701     13700     13703     13704     13701     13700     13703     13705
     13701     13700     13703     13706     13702     13700     13703     13704
     13702     13700     13703     13705     13702     13700     13703     13706
     13703     13706     13709     13710     13703     13706     13709     13711
     13703     13706     13709     13712     13704     13703     13706     13707
     13704     13703     13706     13708     13704     13703     13706     13709
     13705     13703     13706     13707     13705     13703     13706     13708
     13705     13703     13706     13709     13706     13709     13712     13713
     13706     13709     13712     13714     13706     13709     13712     13715
     13707     13706     13709     13710     13707     13706     13709     13711
     13707     13706     13709     13712     13708     13706     13709     13710
     13708     13706     13709     13711     13708     13706     13709     13712
     13709     13712     13715     13716     13709     13712     13715     13717
     13709     13712     13715     13718     13710     13709     13712     13713
     13710     13709     13712     13714     13710     13709     13712     13715
     13711     13709     13712     13713     13711     13709     13712     13714
     13711     13709     13712     13715     13712     13715     13718     13719
     13712     13715     13718     13720     13712     13715     13718     13721
     13713     13712     13715     13716     13713     13712     13715     13717
     13713     13712     13715     13718     13714     13712     13715     13716
     13714     13712     13715     13717     13714     13712     13715     13718
     13716     13715     13718     13719     13716     13715     13718     13720
     13716     13715     13718     13721     13717     13715     13718     13719
     13717     13715     13718     13720     13717     13715     13718     13721
     13722     13724     13727     13728     13722     13724     13727     13729
     13722     13724     13727     13730     13723     13722     13724     13725
     13723     13722     13724     13726     13723     13722     13724     13727
     13724     13727     13730     13731     13724     13727     13730     13732
     13724     13727     13730     13733     13725     13724     13727     13728
     13725     13724     13727     13729     13725     13724     13727     13730
     13726     13724     13727     13728     13726     13724     13727     13729
     13726     13724     13727     13730     13727     13730     13733     13734
     13727     13730     13733     13735     13727     13730     13733     13736
     13728     13727     13730     13731     13728     13727     13730     13732
     13728     13727     13730     13733     13729     13727     13730     13731
     13729     13727     13730     13732     13729     13727     13730     13733
     13730     13733     13736     13737     13730     13733     13736     13738
     13730     13733     13736     13739     13731     13730     13733     13734
     13731     13730     13733     13735     13731     13730     13733     13736
     13732     13730     13733     13734     13732     13730     13733     13735
     13732     13730     13733     13736     13733     13736     13739     13740
     13733     13736     13739     13741     13733     13736     13739     13742
     13734     13733     13736     13737     13734     13733     13736     13738
     13734     13733     13736     13739     13735     13733     13736     13737
     13735     13733     13736     13738     13735     13733     13736     13739
     13736     13739     13742     13743     13736     13739     13742     13744
     13736     13739     13742     13745     13737     13736     13739     13740
     13737     13736     13739     13741     13737     13736     13739     13742
     13738     13736     13739     13740     13738     13736     13739     13741
     13738     13736     13739     13742     13739     13742     13745     13746
     13739     13742     13745     13747     13740     13739     13742     13743
     13740     13739     13742     13744     13740     13739     13742     13745
     13741     13739     13742     13743     13741     13739     13742     13744
     13741     13739     13742     13745     13742     13745     13747     13748
     13742     13745     13747     13749     13743     13742     13745     13746
     13743     13742     13745     13747     13744     13742     13745     13746
     13744     13742     13745     13747     13745     13747     13749     13750
     13745     13747     13749     13751     13745     13747     13749     13752
     13746     13745     13747     13748     13746     13745     13747     13749
     13747     13749     13752     13753     13747     13749     13752     13754
     13747     13749     13752     13755     13748     13747     13749     13750
     13748     13747     13749     13751     13748     13747     13749     13752
     13749     13752     13755     13756     13749     13752     13755     13757
     13749     13752     13755     13758     13750     13749     13752     13753
     13750     13749     13752     13754     13750     13749     13752     13755
     13751     13749     13752     13753     13751     13749     13752     13754
     13751     13749     13752     13755     13752     13755     13758     13759
     13752     13755     13758     13760     13752     13755     13758     13761
     13753     13752     13755     13756     13753     13752     13755     13757
     13753     13752     13755     13758     13754     13752     13755     13756
     13754     13752     13755     13757     13754     13752     13755     13758
     13755     13758     13761     13762     13755     13758     13761     13763
     13755     13758     13761     13764     13756     13755     13758     13759
     13756     13755     13758     13760     13756     13755     13758     13761
     13757     13755     13758     13759     13757     13755     13758     13760
     13757     13755     13758     13761     13758     13761     13764     13765
     13758     13761     13764     13766     13758     13761     13764     13767
     13759     13758     13761     13762     13759     13758     13761     13763
     13759     13758     13761     13764     13760     13758     13761     13762
     13760     13758     13761     13763     13760     13758     13761     13764
     13761     13764     13767     13768     13761     13764     13767     13769
     13761     13764     13767     13770     13762     13761     13764     13765
     13762     13761     13764     13766     13762     13761     13764     13767
     13763     13761     13764     13765     13763     13761     13764     13766
     13763     13761     13764     13767     13764     13767     13770     13771
     13764     13767     13770     13772     13764     13767     13770     13773
     13765     13764     13767     13768     13765     13764     13767     13769
     13765     13764     13767     13770     13766     13764     13767     13768
     13766     13764     13767     13769     13766     13764     13767     13770
     13768     13767     13770     13771     13768     13767     13770     13772
     13768     13767     13770     13773     13769     13767     13770     13771
     13769     13767     13770     13772     13769     13767     13770     13773
     13774     13778     13780     13781     13774     13778     13780     13782
     13774     13778     13783     13784     13774     13778     13783     13785
     13774     13778     13783     13789     13775     13774     13778     13779
     13775     13774     13778     13780     13775     13774     13778     13783
     13776     13774     13778     13779     13776     13774     13778     13780
     13776     13774     13778     13783     13777     13774     13778     13779
     13777     13774     13778     13780     13777     13774     13778     13783
     13778     13783     13789     13786     13779     13778     13780     13781
     13779     13778     13780     13782     13779     13778     13783     13784
     13779     13778     13783     13785     13779     13778     13783     13789
     13780     13778     13783     13784     13780     13778     13783     13785
     13780     13778     13783     13789     13781     13780     13778     13783
     13782     13780     13778     13783     13783     13789     13786     13787
     13783     13789     13786     13788     13783     13789     13786     13790
     13784     13783     13789     13786     13785     13783     13789     13786
     13786     13790     13791     13792     13786     13790     13791     13793
     13786     13790     13791     13794     13787     13786     13790     13791
     13788     13786     13790     13791     13789     13786     13790     13791
     13790     13791     13794     13795     13790     13791     13794     13796
     13790     13791     13794     13802     13791     13794     13796     13797
     13791     13794     13802     13803     13791     13794     13802     13804
     13791     13794     13802     13805     13792     13791     13794     13795
     13792     13791     13794     13796     13792     13791     13794     13802
     13793     13791     13794     13795     13793     13791     13794     13796
     13793     13791     13794     13802     13794     13796     13797     13798
     13794     13796     13797     13799     13794     13802     13805     13806
     13795     13794     13796     13797     13795     13794     13802     13803
     13795     13794     13802     13804     13795     13794     13802     13805
     13796     13794     13802     13803     13796     13794     13802     13804
     13796     13794     13802     13805     13796     13797     13799     13800
     13796     13797     13799     13801     13796     13797     13799     13811
     13797     13796     13794     13802     13797     13799     13811     13812
     13797     13799     13811     13813     13797     13799     13811     13814
     13798     13797     13799     13800     13798     13797     13799     13801
     13798     13797     13799     13811     13799     13811     13814     13815
     13799     13811     13814     13816     13799     13811     13814     13817
     13800     13799     13811     13812     13800     13799     13811     13813
     13800     13799     13811     13814     13801     13799     13811     13812
     13801     13799     13811     13813     13801     13799     13811     13814
     13802     13805     13806     13807     13802     13805     13806     13808
     13803     13802     13805     13806     13804     13802     13805     13806
     13805     13806     13808     13809     13805     13806     13808     13810
     13805     13806     13808     13858     13806     13808     13858     13859
     13806     13808     13858     13860     13806     13808     13858     13861
     13807     13806     13808     13809     13807     13806     13808     13810
     13807     13806     13808     13858     13808     13858     13861     13862
     13808     13858     13861     13863     13808     13858     13861     13864
     13809     13808     13858     13859     13809     13808     13858     13860
     13809     13808     13858     13861     13810     13808     13858     13859
     13810     13808     13858     13860     13810     13808     13858     13861
     13811     13814     13817     13818     13811     13814     13817     13819
     13812     13811     13814     13815     13812     13811     13814     13816
     13812     13811     13814     13817     13813     13811     13814     13815
     13813     13811     13814     13816     13813     13811     13814     13817
     13814     13817     13819     13820     13814     13817     13819     13821
     13815     13814     13817     13818     13815     13814     13817     13819
     13816     13814     13817     13818     13816     13814     13817     13819
     13817     13819     13821     13822     13817     13819     13821     13823
     13817     13819     13821     13824     13818     13817     13819     13820
     13818     13817     13819     13821     13819     13821     13824     13825
     13819     13821     13824     13826     13820     13819     13821     13822
     13820     13819     13821     13823     13820     13819     13821     13824
     13821     13824     13826     13827     13821     13824     13826     13828
     13822     13821     13824     13825     13822     13821     13824     13826
     13823     13821     13824     13825     13823     13821     13824     13826
     13824     13826     13828     13829     13824     13826     13828     13830
     13824     13826     13828     13831     13825     13824     13826     13827
     13825     13824     13826     13828     13826     13828     13831     13832
     13826     13828     13831     13833     13827     13826     13828     13829
     13827     13826     13828     13830     13827     13826     13828     13831
     13828     13831     13833     13834     13828     13831     13833     13835
     13829     13828     13831     13832     13829     13828     13831     13833
     13830     13828     13831     13832     13830     13828     13831     13833
     13831     13833     13835     13836     13831     13833     13835     13837
     13831     13833     13835     13838     13832     13831     13833     13834
     13832     13831     13833     13835     13833     13835     13838     13839
     13833     13835     13838     13840     13834     13833     13835     13836
     13834     13833     13835     13837     13834     13833     13835     13838
     13835     13838     13840     13841     13835     13838     13840     13842
     13836     13835     13838     13839     13836     13835     13838     13840
     13837     13835     13838     13839     13837     13835     13838     13840
     13838     13840     13842     13843     13838     13840     13842     13844
     13838     13840     13842     13845     13839     13838     13840     13841
     13839     13838     13840     13842     13840     13842     13845     13846
     13840     13842     13845     13847     13840     13842     13845     13848
     13841     13840     13842     13843     13841     13840     13842     13844
     13841     13840     13842     13845     13842     13845     13848     13849
     13842     13845     13848     13850     13842     13845     13848     13851
     13843     13842     13845     13846     13843     13842     13845     13847
     13843     13842     13845     13848     13844     13842     13845     13846
     13844     13842     13845     13847     13844     13842     13845     13848
     13845     13848     13851     13852     13845     13848     13851     13853
     13845     13848     13851     13854     13846     13845     13848     13849
     13846     13845     13848     13850     13846     13845     13848     13851
     13847     13845     13848     13849     13847     13845     13848     13850
     13847     13845     13848     13851     13848     13851     13854     13855
     13848     13851     13854     13856     13848     13851     13854     13857
     13849     13848     13851     13852     13849     13848     13851     13853
     13849     13848     13851     13854     13850     13848     13851     13852
     13850     13848     13851     13853     13850     13848     13851     13854
     13852     13851     13854     13855     13852     13851     13854     13856
     13852     13851     13854     13857     13853     13851     13854     13855
     13853     13851     13854     13856     13853     13851     13854     13857
     13858     13861     13864     13865     13858     13861     13864     13866
     13858     13861     13864     13867     13859     13858     13861     13862
     13859     13858     13861     13863     13859     13858     13861     13864
     13860     13858     13861     13862     13860     13858     13861     13863
     13860     13858     13861     13864     13861     13864     13867     13868
     13861     13864     13867     13869     13861     13864     13867     13870
     13862     13861     13864     13865     13862     13861     13864     13866
     13862     13861     13864     13867     13863     13861     13864     13865
     13863     13861     13864     13866     13863     13861     13864     13867
     13864     13867     13870     13871     13864     13867     13870     13872
     13864     13867     13870     13873     13865     13864     13867     13868
     13865     13864     13867     13869     13865     13864     13867     13870
     13866     13864     13867     13868     13866     13864     13867     13869
     13866     13864     13867     13870     13867     13870     13873     13874
     13867     13870     13873     13875     13867     13870     13873     13876
     13868     13867     13870     13871     13868     13867     13870     13872
     13868     13867     13870     13873     13869     13867     13870     13871
     13869     13867     13870     13872     13869     13867     13870     13873
     13870     13873     13876     13877     13870     13873     13876     13878
     13870     13873     13876     13879     13871     13870     13873     13874
     13871     13870     13873     13875     13871     13870     13873     13876
     13872     13870     13873     13874     13872     13870     13873     13875
     13872     13870     13873     13876     13873     13876     13879     13880
     13873     13876     13879     13881     13873     13876     13879     13882
     13874     13873     13876     13877     13874     13873     13876     13878
     13874     13873     13876     13879     13875     13873     13876     13877
     13875     13873     13876     13878     13875     13873     13876     13879
     13876     13879     13882     13883     13876     13879     13882     13884
     13876     13879     13882     13885     13877     13876     13879     13880
     13877     13876     13879     13881     13877     13876     13879     13882
     13878     13876     13879     13880     13878     13876     13879     13881
     13878     13876     13879     13882     13879     13882     13885     13886
     13879     13882     13885     13887     13879     13882     13885     13888
     13880     13879     13882     13883     13880     13879     13882     13884
     13880     13879     13882     13885     13881     13879     13882     13883
     13881     13879     13882     13884     13881     13879     13882     13885
     13882     13885     13888     13889     13882     13885     13888     13890
     13882     13885     13888     13891     13883     13882     13885     13886
     13883     13882     13885     13887     13883     13882     13885     13888
     13884     13882     13885     13886     13884     13882     13885     13887
     13884     13882     13885     13888     13885     13888     13891     13892
     13885     13888     13891     13893     13885     13888     13891     13894
     13886     13885     13888     13889     13886     13885     13888     13890
     13886     13885     13888     13891     13887     13885     13888     13889
     13887     13885     13888     13890     13887     13885     13888     13891
     13888     13891     13894     13895     13888     13891     13894     13896
     13888     13891     13894     13897     13889     13888     13891     13892
     13889     13888     13891     13893     13889     13888     13891     13894
     13890     13888     13891     13892     13890     13888     13891     13893
     13890     13888     13891     13894     13891     13894     13897     13898
     13891     13894     13897     13899     13891     13894     13897     13900
     13892     13891     13894     13895     13892     13891     13894     13896
     13892     13891     13894     13897     13893     13891     13894     13895
     13893     13891     13894     13896     13893     13891     13894     13897
     13894     13897     13900     13901     13894     13897     13900     13902
     13894     13897     13900     13903     13895     13894     13897     13898
     13895     13894     13897     13899     13895     13894     13897     13900
     13896     13894     13897     13898     13896     13894     13897     13899
     13896     13894     13897     13900     13897     13900     13903     13904
     13897     13900     13903     13905     13897     13900     13903     13906
     13898     13897     13900     13901     13898     13897     13900     13902
     13898     13897     13900     13903     13899     13897     13900     13901
     13899     13897     13900     13902     13899     13897     13900     13903
     13901     13900     13903     13904     13901     13900     13903     13905
     13901     13900     13903     13906     13902     13900     13903     13904
     13902     13900     13903     13905     13902     13900     13903     13906
     13907     13911     13914     13915     13907     13911     13914     13945
     13907     13953     13950     13945     13907     13953     13950     13951
     13907     13953     13950     13952     13908     13907     13909     13910
     13908     13907     13911     13912     13908     13907     13911     13913
     13908     13907     13911     13914     13908     13907     13953     13950
     13908     13907     13953     13954     13908     13907     13953     13955
     13909     13907     13911     13912     13909     13907     13911     13913
     13909     13907     13911     13914     13909     13907     13953     13950
     13909     13907     13953     13954     13909     13907     13953     13955
     13910     13909     13907     13911     13910     13909     13907     13953
     13911     13907     13953     13950     13911     13907     13953     13954
     13911     13907     13953     13955     13911     13914     13915     13916
     13911     13914     13915     13917     13911     13914     13945     13943
     13911     13914     13945     13946     13911     13914     13945     13950
     13912     13911     13907     13953     13912     13911     13914     13915
     13912     13911     13914     13945     13913     13911     13907     13953
     13913     13911     13914     13915     13913     13911     13914     13945
     13914     13911     13907     13953     13914     13915     13917     13918
     13914     13915     13917     13919     13914     13915     13917     13920
     13914     13945     13943     13920     13914     13945     13943     13940
     13914     13945     13943     13944     13914     13945     13946     13947
     13914     13945     13946     13948     13914     13945     13946     13949
     13914     13945     13950     13951     13914     13945     13950     13952
     13914     13945     13950     13953     13915     13914     13945     13943
     13915     13914     13945     13946     13915     13914     13945     13950
     13915     13917     13920     13921     13915     13917     13920     13922
     13915     13917     13920     13943     13916     13915     13914     13945
     13916     13915     13917     13918     13916     13915     13917     13919
     13916     13915     13917     13920     13917     13915     13914     13945
     13917     13920     13922     13923     13917     13920     13922     13924
     13917     13920     13922     13932     13917     13920     13943     13940
     13917     13920     13943     13944     13917     13920     13943     13945
     13918     13917     13920     13921     13918     13917     13920     13922
     13918     13917     13920     13943     13919     13917     13920     13921
     13919     13917     13920     13922     13919     13917     13920     13943
     13920     13922     13924     13925     13920     13922     13924     13926
     13920     13922     13924     13927     13920     13922     13932     13930
     13920     13922     13932     13933     13920     13922     13932     13937
     13920     13943     13940     13937     13920     13943     13940     13941
     13920     13943     13940     13942     13920     13943     13945     13946
     13920     13943     13945     13950     13921     13920     13922     13923
     13921     13920     13922     13924     13921     13920     13922     13932
     13921     13920     13943     13940     13921     13920     13943     13944
     13921     13920     13943     13945     13922     13920     13943     13940
     13922     13920     13943     13944     13922     13920     13943     13945
     13922     13924     13927     13928     13922     13924     13927     13929
     13922     13924     13927     13930     13922     13932     13930     13927
     13922     13932     13930     13931     13922     13932     13930     13956
     13922     13932     13933     13934     13922     13932     13933     13935
     13922     13932     13933     13936     13922     13932     13937     13938
     13922     13932     13937     13939     13922     13932     13937     13940
     13923     13922     13920     13943     13923     13922     13924     13925
     13923     13922     13924     13926     13923     13922     13924     13927
     13923     13922     13932     13930     13923     13922     13932     13933
     13923     13922     13932     13937     13924     13922     13920     13943
     13924     13922     13932     13930     13924     13922     13932     13933
     13924     13922     13932     13937     13924     13927     13930     13931
     13924     13927     13930     13932     13924     13927     13930     13956
     13925     13924     13922     13932     13925     13924     13927     13928
     13925     13924     13927     13929     13925     13924     13927     13930
     13926     13924     13922     13932     13926     13924     13927     13928
     13926     13924     13927     13929     13926     13924     13927     13930
     13927     13924     13922     13932     13927     13930     13932     13933
     13927     13930     13932     13937     13927     13930     13956     13957
     13927     13930     13956     13958     13927     13930     13956     13962
     13928     13927     13930     13931     13928     13927     13930     13932
     13928     13927     13930     13956     13929     13927     13930     13931
     13929     13927     13930     13932     13929     13927     13930     13956
     13930     13932     13933     13934     13930     13932     13933     13935
     13930     13932     13933     13936     13930     13932     13937     13938
     13930     13932     13937     13939     13930     13932     13937     13940
     13930     13956     13958     13959     13930     13956     13958     13960
     13930     13956     13958     13961     13930     13956     13962     13963
     13930     13956     13962     13964     13930     13956     13962     13965
     13931     13930     13932     13933     13931     13930     13932     13937
     13931     13930     13956     13957     13931     13930     13956     13958
     13931     13930     13956     13962     13932     13922     13920     13943
     13932     13930     13956     13957     13932     13930     13956     13958
     13932     13930     13956     13962     13932     13937     13940     13941
     13932     13937     13940     13942     13932     13937     13940     13943
     13933     13932     13930     13956     13933     13932     13937     13938
     13933     13932     13937     13939     13933     13932     13937     13940
     13934     13933     13932     13937     13935     13933     13932     13937
     13936     13933     13932     13937     13937     13932     13930     13956
     13937     13940     13943     13944     13937     13940     13943     13945
     13938     13937     13940     13941     13938     13937     13940     13942
     13938     13937     13940     13943     13939     13937     13940     13941
     13939     13937     13940     13942     13939     13937     13940     13943
     13940     13943     13945     13946     13940     13943     13945     13950
     13941     13940     13943     13944     13941     13940     13943     13945
     13942     13940     13943     13944     13942     13940     13943     13945
     13943     13945     13946     13947     13943     13945     13946     13948
     13943     13945     13946     13949     13943     13945     13950     13951
     13943     13945     13950     13952     13943     13945     13950     13953
     13944     13943     13945     13946     13944     13943     13945     13950
     13945     13950     13953     13954     13945     13950     13953     13955
     13946     13945     13950     13951     13946     13945     13950     13952
     13946     13945     13950     13953     13947     13946     13945     13950
     13948     13946     13945     13950     13949     13946     13945     13950
     13951     13950     13953     13954     13951     13950     13953     13955
     13952     13950     13953     13954     13952     13950     13953     13955
     13956     13962     13965     13966     13956     13962     13965     13967
     13956     13962     13965     13968     13957     13956     13958     13959
     13957     13956     13958     13960     13957     13956     13958     13961
     13957     13956     13962     13963     13957     13956     13962     13964
     13957     13956     13962     13965     13958     13956     13962     13963
     13958     13956     13962     13964     13958     13956     13962     13965
     13959     13958     13956     13962     13960     13958     13956     13962
     13961     13958     13956     13962     13962     13965     13968     13969
     13962     13965     13968     13970     13962     13965     13968     13971
     13963     13962     13965     13966     13963     13962     13965     13967
     13963     13962     13965     13968     13964     13962     13965     13966
     13964     13962     13965     13967     13964     13962     13965     13968
     13965     13968     13971     13972     13965     13968     13971     13973
     13965     13968     13971     13977     13966     13965     13968     13969
     13966     13965     13968     13970     13966     13965     13968     13971
     13967     13965     13968     13969     13967     13965     13968     13970
     13967     13965     13968     13971     13968     13971     13973     13974
     13968     13971     13973     13975     13968     13971     13973     13976
     13968     13971     13977     13978     13968     13971     13977     13979
     13968     13971     13977     13980     13969     13968     13971     13972
     13969     13968     13971     13973     13969     13968     13971     13977
     13970     13968     13971     13972     13970     13968     13971     13973
     13970     13968     13971     13977     13972     13971     13973     13974
     13972     13971     13973     13975     13972     13971     13973     13976
     13972     13971     13977     13978     13972     13971     13977     13979
     13972     13971     13977     13980     13973     13971     13977     13978
     13973     13971     13977     13979     13973     13971     13977     13980
     13974     13973     13971     13977     13975     13973     13971     13977
     13976     13973     13971     13977     13981     13994     13997     13998
     13981     13994     13997     13999     13981     13994     13997     14004
     13982     13981     13986     13987     13982     13981     13986     13988
     13982     13981     13986     13989     13982     13981     13990     13991
     13982     13981     13990     13992     13982     13981     13990     13993
     13982     13981     13994     13995     13982     13981     13994     13996
     13982     13981     13994     13997     13983     13982     13981     13986
     13983     13982     13981     13990     13983     13982     13981     13994
     13984     13982     13981     13986     13984     13982     13981     13990
     13984     13982     13981     13994     13985     13982     13981     13986
     13985     13982     13981     13990     13985     13982     13981     13994
     13986     13981     13990     13991     13986     13981     13990     13992
     13986     13981     13990     13993     13986     13981     13994     13995
     13986     13981     13994     13996     13986     13981     13994     13997
     13987     13986     13981     13990     13987     13986     13981     13994
     13988     13986     13981     13990     13988     13986     13981     13994
     13989     13986     13981     13990     13989     13986     13981     13994
     13990     13981     13994     13995     13990     13981     13994     13996
     13990     13981     13994     13997     13991     13990     13981     13994
     13992     13990     13981     13994     13993     13990     13981     13994
     13994     13997     14004     14000     13995     13994     13997     13998
     13995     13994     13997     13999     13995     13994     13997     14004
     13996     13994     13997     13998     13996     13994     13997     13999
     13996     13994     13997     14004     13997     14004     14000     14001
     13997     14004     14000     14002     13997     14004     14000     14003
     13998     13997     14004     14000     13999     13997     14004     14000
     14000     14003     14005     14006     14000     14003     14005     14007
     14000     14003     14005     14010     14001     14000     14003     14005
     14002     14000     14003     14005     14003     14005     14010     14008
     14003     14005     14010     14011     14003     14005     14010     14012
     14004     14000     14003     14005     14005     14010     14008     14009
     14005     14010     14008     14060     14005     14010     14012     14013
     14005     14010     14012     14014     14005     14010     14012     14016
     14006     14005     14010     14008     14006     14005     14010     14011
     14006     14005     14010     14012     14007     14005     14010     14008
     14007     14005     14010     14011     14007     14005     14010     14012
     14008     14010     14012     14013     14008     14010     14012     14014
     14008     14010     14012     14016     14008     14060     14062     14063
     14008     14060     14062     14064     14008     14060     14062     14065
     14009     14008     14010     14011     14009     14008     14010     14012
     14009     14008     14060     14061     14009     14008     14060     14062
     14010     14008     14060     14061     14010     14008     14060     14062
     14010     14012     14014     14015     14010     14012     14016     14017
     14010     14012     14016     14018     14011     14010     14008     14060
     14011     14010     14012     14013     14011     14010     14012     14014
     14011     14010     14012     14016     14012     14010     14008     14060
     14012     14016     14018     14019     14012     14016     14018     14020
     14013     14012     14014     14015     14013     14012     14016     14017
     14013     14012     14016     14018     14014     14012     14016     14017
     14014     14012     14016     14018     14015     14014     14012     14016
     14016     14018     14020     14021     14016     14018     14020     14022
     14016     14018     14020     14023     14017     14016     14018     14019
     14017     14016     14018     14020     14018     14020     14023     14024
     14018     14020     14023     14025     14018     14020     14023     14026
     14019     14018     14020     14021     14019     14018     14020     14022
     14019     14018     14020     14023     14020     14023     14026     14027
     14020     14023     14026     14028     14020     14023     14026     14029
     14021     14020     14023     14024     14021     14020     14023     14025
     14021     14020     14023     14026     14022     14020     14023     14024
     14022     14020     14023     14025     14022     14020     14023     14026
     14023     14026     14029     14030     14023     14026     14029     14031
     14023     14026     14029     14032     14024     14023     14026     14027
     14024     14023     14026     14028     14024     14023     14026     14029
     14025     14023     14026     14027     14025     14023     14026     14028
     14025     14023     14026     14029     14026     14029     14032     14033
     14026     14029     14032     14034     14026     14029     14032     14035
     14027     14026     14029     14030     14027     14026     14029     14031
     14027     14026     14029     14032     14028     14026     14029     14030
     14028     14026     14029     14031     14028     14026     14029     14032
     14029     14032     14035     14036     14029     14032     14035     14037
     14029     14032     14035     14038     14030     14029     14032     14033
     14030     14029     14032     14034     14030     14029     14032     14035
     14031     14029     14032     14033     14031     14029     14032     14034
     14031     14029     14032     14035     14032     14035     14038     14039
     14032     14035     14038     14040     14032     14035     14038     14041
     14033     14032     14035     14036     14033     14032     14035     14037
     14033     14032     14035     14038     14034     14032     14035     14036
     14034     14032     14035     14037     14034     14032     14035     14038
     14035     14038     14041     14042     14035     14038     14041     14043
     14035     14038     14041     14044     14036     14035     14038     14039
     14036     14035     14038     14040     14036     14035     14038     14041
     14037     14035     14038     14039     14037     14035     14038     14040
     14037     14035     14038     14041     14038     14041     14044     14045
     14038     14041     14044     14046     14038     14041     14044     14047
     14039     14038     14041     14042     14039     14038     14041     14043
     14039     14038     14041     14044     14040     14038     14041     14042
     14040     14038     14041     14043     14040     14038     14041     14044
     14041     14044     14047     14048     14041     14044     14047     14049
     14041     14044     14047     14050     14042     14041     14044     14045
     14042     14041     14044     14046     14042     14041     14044     14047
     14043     14041     14044     14045     14043     14041     14044     14046
     14043     14041     14044     14047     14044     14047     14050     14051
     14044     14047     14050     14052     14044     14047     14050     14053
     14045     14044     14047     14048     14045     14044     14047     14049
     14045     14044     14047     14050     14046     14044     14047     14048
     14046     14044     14047     14049     14046     14044     14047     14050
     14047     14050     14053     14054     14047     14050     14053     14055
     14047     14050     14053     14056     14048     14047     14050     14051
     14048     14047     14050     14052     14048     14047     14050     14053
     14049     14047     14050     14051     14049     14047     14050     14052
     14049     14047     14050     14053     14050     14053     14056     14057
     14050     14053     14056     14058     14050     14053     14056     14059
     14051     14050     14053     14054     14051     14050     14053     14055
     14051     14050     14053     14056     14052     14050     14053     14054
     14052     14050     14053     14055     14052     14050     14053     14056
     14054     14053     14056     14057     14054     14053     14056     14058
     14054     14053     14056     14059     14055     14053     14056     14057
     14055     14053     14056     14058     14055     14053     14056     14059
     14060     14062     14065     14066     14060     14062     14065     14067
     14060     14062     14065     14068     14061     14060     14062     14063
     14061     14060     14062     14064     14061     14060     14062     14065
     14062     14065     14068     14069     14062     14065     14068     14070
     14062     14065     14068     14071     14063     14062     14065     14066
     14063     14062     14065     14067     14063     14062     14065     14068
     14064     14062     14065     14066     14064     14062     14065     14067
     14064     14062     14065     14068     14065     14068     14071     14072
     14065     14068     14071     14073     14065     14068     14071     14074
     14066     14065     14068     14069     14066     14065     14068     14070
     14066     14065     14068     14071     14067     14065     14068     14069
     14067     14065     14068     14070     14067     14065     14068     14071
     14068     14071     14074     14075     14068     14071     14074     14076
     14068     14071     14074     14077     14069     14068     14071     14072
     14069     14068     14071     14073     14069     14068     14071     14074
     14070     14068     14071     14072     14070     14068     14071     14073
     14070     14068     14071     14074     14071     14074     14077     14078
     14071     14074     14077     14079     14071     14074     14077     14080
     14072     14071     14074     14075     14072     14071     14074     14076
     14072     14071     14074     14077     14073     14071     14074     14075
     14073     14071     14074     14076     14073     14071     14074     14077
     14074     14077     14080     14081     14074     14077     14080     14082
     14074     14077     14080     14083     14075     14074     14077     14078
     14075     14074     14077     14079     14075     14074     14077     14080
     14076     14074     14077     14078     14076     14074     14077     14079
     14076     14074     14077     14080     14077     14080     14083     14084
     14077     14080     14083     14085     14078     14077     14080     14081
     14078     14077     14080     14082     14078     14077     14080     14083
     14079     14077     14080     14081     14079     14077     14080     14082
     14079     14077     14080     14083     14080     14083     14085     14086
     14080     14083     14085     14087     14081     14080     14083     14084
     14081     14080     14083     14085     14082     14080     14083     14084
     14082     14080     14083     14085     14083     14085     14087     14088
     14083     14085     14087     14089     14083     14085     14087     14090
     14084     14083     14085     14086     14084     14083     14085     14087
     14085     14087     14090     14091     14085     14087     14090     14092
     14085     14087     14090     14093     14086     14085     14087     14088
     14086     14085     14087     14089     14086     14085     14087     14090
     14087     14090     14093     14094     14087     14090     14093     14095
     14087     14090     14093     14096     14088     14087     14090     14091
     14088     14087     14090     14092     14088     14087     14090     14093
     14089     14087     14090     14091     14089     14087     14090     14092
     14089     14087     14090     14093     14090     14093     14096     14097
     14090     14093     14096     14098     14090     14093     14096     14099
     14091     14090     14093     14094     14091     14090     14093     14095
     14091     14090     14093     14096     14092     14090     14093     14094
     14092     14090     14093     14095     14092     14090     14093     14096
     14093     14096     14099     14100     14093     14096     14099     14101
     14093     14096     14099     14102     14094     14093     14096     14097
     14094     14093     14096     14098     14094     14093     14096     14099
     14095     14093     14096     14097     14095     14093     14096     14098
     14095     14093     14096     14099     14096     14099     14102     14103
     14096     14099     14102     14104     14096     14099     14102     14105
     14097     14096     14099     14100     14097     14096     14099     14101
     14097     14096     14099     14102     14098     14096     14099     14100
     14098     14096     14099     14101     14098     14096     14099     14102
     14099     14102     14105     14106     14099     14102     14105     14107
     14099     14102     14105     14108     14100     14099     14102     14103
     14100     14099     14102     14104     14100     14099     14102     14105
     14101     14099     14102     14103     14101     14099     14102     14104
     14101     14099     14102     14105     14102     14105     14108     14109
     14102     14105     14108     14110     14102     14105     14108     14111
     14103     14102     14105     14106     14103     14102     14105     14107
     14103     14102     14105     14108     14104     14102     14105     14106
     14104     14102     14105     14107     14104     14102     14105     14108
     14106     14105     14108     14109     14106     14105     14108     14110
     14106     14105     14108     14111     14107     14105     14108     14109
     14107     14105     14108     14110     14107     14105     14108     14111
     14112     14125     14128     14129     14112     14125     14128     14130
     14112     14125     14128     14135     14113     14112     14117     14118
     14113     14112     14117     14119     14113     14112     14117     14120
     14113     14112     14121     14122     14113     14112     14121     14123
     14113     14112     14121     14124     14113     14112     14125     14126
     14113     14112     14125     14127     14113     14112     14125     14128
     14114     14113     14112     14117     14114     14113     14112     14121
     14114     14113     14112     14125     14115     14113     14112     14117
     14115     14113     14112     14121     14115     14113     14112     14125
     14116     14113     14112     14117     14116     14113     14112     14121
     14116     14113     14112     14125     14117     14112     14121     14122
     14117     14112     14121     14123     14117     14112     14121     14124
     14117     14112     14125     14126     14117     14112     14125     14127
     14117     14112     14125     14128     14118     14117     14112     14121
     14118     14117     14112     14125     14119     14117     14112     14121
     14119     14117     14112     14125     14120     14117     14112     14121
     14120     14117     14112     14125     14121     14112     14125     14126
     14121     14112     14125     14127     14121     14112     14125     14128
     14122     14121     14112     14125     14123     14121     14112     14125
     14124     14121     14112     14125     14125     14128     14135     14131
     14126     14125     14128     14129     14126     14125     14128     14130
     14126     14125     14128     14135     14127     14125     14128     14129
     14127     14125     14128     14130     14127     14125     14128     14135
     14128     14135     14131     14132     14128     14135     14131     14133
     14128     14135     14131     14134     14129     14128     14135     14131
     14130     14128     14135     14131     14131     14134     14136     14137
     14131     14134     14136     14138     14131     14134     14136     14141
     14132     14131     14134     14136     14133     14131     14134     14136
     14134     14136     14141     14139     14134     14136     14141     14142
     14134     14136     14141     14143     14135     14131     14134     14136
     14136     14141     14139     14140     14136     14141     14139     14191
     14136     14141     14143     14144     14136     14141     14143     14145
     14136     14141     14143     14147     14137     14136     14141     14139
     14137     14136     14141     14142     14137     14136     14141     14143
     14138     14136     14141     14139     14138     14136     14141     14142
     14138     14136     14141     14143     14139     14141     14143     14144
     14139     14141     14143     14145     14139     14141     14143     14147
     14139     14191     14193     14194     14139     14191     14193     14195
     14139     14191     14193     14196     14140     14139     14141     14142
     14140     14139     14141     14143     14140     14139     14191     14192
     14140     14139     14191     14193     14141     14139     14191     14192
     14141     14139     14191     14193     14141     14143     14145     14146
     14141     14143     14147     14148     14141     14143     14147     14149
     14142     14141     14139     14191     14142     14141     14143     14144
     14142     14141     14143     14145     14142     14141     14143     14147
     14143     14141     14139     14191     14143     14147     14149     14150
     14143     14147     14149     14151     14144     14143     14145     14146
     14144     14143     14147     14148     14144     14143     14147     14149
     14145     14143     14147     14148     14145     14143     14147     14149
     14146     14145     14143     14147     14147     14149     14151     14152
     14147     14149     14151     14153     14147     14149     14151     14154
     14148     14147     14149     14150     14148     14147     14149     14151
     14149     14151     14154     14155     14149     14151     14154     14156
     14149     14151     14154     14157     14150     14149     14151     14152
     14150     14149     14151     14153     14150     14149     14151     14154
     14151     14154     14157     14158     14151     14154     14157     14159
     14151     14154     14157     14160     14152     14151     14154     14155
     14152     14151     14154     14156     14152     14151     14154     14157
     14153     14151     14154     14155     14153     14151     14154     14156
     14153     14151     14154     14157     14154     14157     14160     14161
     14154     14157     14160     14162     14154     14157     14160     14163
     14155     14154     14157     14158     14155     14154     14157     14159
     14155     14154     14157     14160     14156     14154     14157     14158
     14156     14154     14157     14159     14156     14154     14157     14160
     14157     14160     14163     14164     14157     14160     14163     14165
     14157     14160     14163     14166     14158     14157     14160     14161
     14158     14157     14160     14162     14158     14157     14160     14163
     14159     14157     14160     14161     14159     14157     14160     14162
     14159     14157     14160     14163     14160     14163     14166     14167
     14160     14163     14166     14168     14160     14163     14166     14169
     14161     14160     14163     14164     14161     14160     14163     14165
     14161     14160     14163     14166     14162     14160     14163     14164
     14162     14160     14163     14165     14162     14160     14163     14166
     14163     14166     14169     14170     14163     14166     14169     14171
     14163     14166     14169     14172     14164     14163     14166     14167
     14164     14163     14166     14168     14164     14163     14166     14169
     14165     14163     14166     14167     14165     14163     14166     14168
     14165     14163     14166     14169     14166     14169     14172     14173
     14166     14169     14172     14174     14166     14169     14172     14175
     14167     14166     14169     14170     14167     14166     14169     14171
     14167     14166     14169     14172     14168     14166     14169     14170
     14168     14166     14169     14171     14168     14166     14169     14172
     14169     14172     14175     14176     14169     14172     14175     14177
     14169     14172     14175     14178     14170     14169     14172     14173
     14170     14169     14172     14174     14170     14169     14172     14175
     14171     14169     14172     14173     14171     14169     14172     14174
     14171     14169     14172     14175     14172     14175     14178     14179
     14172     14175     14178     14180     14172     14175     14178     14181
     14173     14172     14175     14176     14173     14172     14175     14177
     14173     14172     14175     14178     14174     14172     14175     14176
     14174     14172     14175     14177     14174     14172     14175     14178
     14175     14178     14181     14182     14175     14178     14181     14183
     14175     14178     14181     14184     14176     14175     14178     14179
     14176     14175     14178     14180     14176     14175     14178     14181
     14177     14175     14178     14179     14177     14175     14178     14180
     14177     14175     14178     14181     14178     14181     14184     14185
     14178     14181     14184     14186     14178     14181     14184     14187
     14179     14178     14181     14182     14179     14178     14181     14183
     14179     14178     14181     14184     14180     14178     14181     14182
     14180     14178     14181     14183     14180     14178     14181     14184
     14181     14184     14187     14188     14181     14184     14187     14189
     14181     14184     14187     14190     14182     14181     14184     14185
     14182     14181     14184     14186     14182     14181     14184     14187
     14183     14181     14184     14185     14183     14181     14184     14186
     14183     14181     14184     14187     14185     14184     14187     14188
     14185     14184     14187     14189     14185     14184     14187     14190
     14186     14184     14187     14188     14186     14184     14187     14189
     14186     14184     14187     14190     14191     14193     14196     14197
     14191     14193     14196     14198     14191     14193     14196     14199
     14192     14191     14193     14194     14192     14191     14193     14195
     14192     14191     14193     14196     14193     14196     14199     14200
     14193     14196     14199     14201     14193     14196     14199     14202
     14194     14193     14196     14197     14194     14193     14196     14198
     14194     14193     14196     14199     14195     14193     14196     14197
     14195     14193     14196     14198     14195     14193     14196     14199
     14196     14199     14202     14203     14196     14199     14202     14204
     14196     14199     14202     14205     14197     14196     14199     14200
     14197     14196     14199     14201     14197     14196     14199     14202
     14198     14196     14199     14200     14198     14196     14199     14201
     14198     14196     14199     14202     14199     14202     14205     14206
     14199     14202     14205     14207     14199     14202     14205     14208
     14200     14199     14202     14203     14200     14199     14202     14204
     14200     14199     14202     14205     14201     14199     14202     14203
     14201     14199     14202     14204     14201     14199     14202     14205
     14202     14205     14208     14209     14202     14205     14208     14210
     14202     14205     14208     14211     14203     14202     14205     14206
     14203     14202     14205     14207     14203     14202     14205     14208
     14204     14202     14205     14206     14204     14202     14205     14207
     14204     14202     14205     14208     14205     14208     14211     14212
     14205     14208     14211     14213     14205     14208     14211     14214
     14206     14205     14208     14209     14206     14205     14208     14210
     14206     14205     14208     14211     14207     14205     14208     14209
     14207     14205     14208     14210     14207     14205     14208     14211
     14208     14211     14214     14215     14208     14211     14214     14216
     14209     14208     14211     14212     14209     14208     14211     14213
     14209     14208     14211     14214     14210     14208     14211     14212
     14210     14208     14211     14213     14210     14208     14211     14214
     14211     14214     14216     14217     14211     14214     14216     14218
     14212     14211     14214     14215     14212     14211     14214     14216
     14213     14211     14214     14215     14213     14211     14214     14216
     14214     14216     14218     14219     14214     14216     14218     14220
     14214     14216     14218     14221     14215     14214     14216     14217
     14215     14214     14216     14218     14216     14218     14221     14222
     14216     14218     14221     14223     14216     14218     14221     14224
     14217     14216     14218     14219     14217     14216     14218     14220
     14217     14216     14218     14221     14218     14221     14224     14225
     14218     14221     14224     14226     14218     14221     14224     14227
     14219     14218     14221     14222     14219     14218     14221     14223
     14219     14218     14221     14224     14220     14218     14221     14222
     14220     14218     14221     14223     14220     14218     14221     14224
     14221     14224     14227     14228     14221     14224     14227     14229
     14221     14224     14227     14230     14222     14221     14224     14225
     14222     14221     14224     14226     14222     14221     14224     14227
     14223     14221     14224     14225     14223     14221     14224     14226
     14223     14221     14224     14227     14224     14227     14230     14231
     14224     14227     14230     14232     14224     14227     14230     14233
     14225     14224     14227     14228     14225     14224     14227     14229
     14225     14224     14227     14230     14226     14224     14227     14228
     14226     14224     14227     14229     14226     14224     14227     14230
     14227     14230     14233     14234     14227     14230     14233     14235
     14227     14230     14233     14236     14228     14227     14230     14231
     14228     14227     14230     14232     14228     14227     14230     14233
     14229     14227     14230     14231     14229     14227     14230     14232
     14229     14227     14230     14233     14230     14233     14236     14237
     14230     14233     14236     14238     14230     14233     14236     14239
     14231     14230     14233     14234     14231     14230     14233     14235
     14231     14230     14233     14236     14232     14230     14233     14234
     14232     14230     14233     14235     14232     14230     14233     14236
     14233     14236     14239     14240     14233     14236     14239     14241
     14233     14236     14239     14242     14234     14233     14236     14237
     14234     14233     14236     14238     14234     14233     14236     14239
     14235     14233     14236     14237     14235     14233     14236     14238
     14235     14233     14236     14239     14237     14236     14239     14240
     14237     14236     14239     14241     14237     14236     14239     14242
     14238     14236     14239     14240     14238     14236     14239     14241
     14238     14236     14239     14242     14243     14247     14250     14251
     14243     14247     14250     14252     14243     14247     14250     14256
     14244     14243     14247     14248     14244     14243     14247     14249
     14244     14243     14247     14250     14245     14243     14247     14248
     14245     14243     14247     14249     14245     14243     14247     14250
     14246     14243     14247     14248     14246     14243     14247     14249
     14246     14243     14247     14250     14247     14250     14256     14253
     14248     14247     14250     14251     14248     14247     14250     14252
     14248     14247     14250     14256     14249     14247     14250     14251
     14249     14247     14250     14252     14249     14247     14250     14256
     14250     14256     14253     14254     14250     14256     14253     14255
     14250     14256     14253     14257     14251     14250     14256     14253
     14252     14250     14256     14253     14253     14257     14258     14259
     14253     14257     14258     14260     14253     14257     14258     14261
     14254     14253     14257     14258     14255     14253     14257     14258
     14256     14253     14257     14258     14257     14258     14261     14262
     14257     14258     14261     14263     14257     14258     14261     14269
     14258     14261     14263     14264     14258     14261     14269     14270
     14258     14261     14269     14271     14258     14261     14269     14272
     14259     14258     14261     14262     14259     14258     14261     14263
     14259     14258     14261     14269     14260     14258     14261     14262
     14260     14258     14261     14263     14260     14258     14261     14269
     14261     14263     14264     14265     14261     14263     14264     14266
     14261     14269     14272     14273     14262     14261     14263     14264
     14262     14261     14269     14270     14262     14261     14269     14271
     14262     14261     14269     14272     14263     14261     14269     14270
     14263     14261     14269     14271     14263     14261     14269     14272
     14263     14264     14266     14267     14263     14264     14266     14268
     14263     14264     14266     14278     14264     14263     14261     14269
     14264     14266     14278     14279     14264     14266     14278     14280
     14264     14266     14278     14281     14265     14264     14266     14267
     14265     14264     14266     14268     14265     14264     14266     14278
     14266     14278     14281     14282     14266     14278     14281     14283
     14266     14278     14281     14284     14267     14266     14278     14279
     14267     14266     14278     14280     14267     14266     14278     14281
     14268     14266     14278     14279     14268     14266     14278     14280
     14268     14266     14278     14281     14269     14272     14273     14274
     14269     14272     14273     14275     14270     14269     14272     14273
     14271     14269     14272     14273     14272     14273     14275     14276
     14272     14273     14275     14277     14272     14273     14275     14325
     14273     14275     14325     14326     14273     14275     14325     14327
     14273     14275     14325     14328     14274     14273     14275     14276
     14274     14273     14275     14277     14274     14273     14275     14325
     14275     14325     14328     14329     14275     14325     14328     14330
     14275     14325     14328     14331     14276     14275     14325     14326
     14276     14275     14325     14327     14276     14275     14325     14328
     14277     14275     14325     14326     14277     14275     14325     14327
     14277     14275     14325     14328     14278     14281     14284     14285
     14278     14281     14284     14286     14279     14278     14281     14282
     14279     14278     14281     14283     14279     14278     14281     14284
     14280     14278     14281     14282     14280     14278     14281     14283
     14280     14278     14281     14284     14281     14284     14286     14287
     14281     14284     14286     14288     14282     14281     14284     14285
     14282     14281     14284     14286     14283     14281     14284     14285
     14283     14281     14284     14286     14284     14286     14288     14289
     14284     14286     14288     14290     14284     14286     14288     14291
     14285     14284     14286     14287     14285     14284     14286     14288
     14286     14288     14291     14292     14286     14288     14291     14293
     14287     14286     14288     14289     14287     14286     14288     14290
     14287     14286     14288     14291     14288     14291     14293     14294
     14288     14291     14293     14295     14289     14288     14291     14292
     14289     14288     14291     14293     14290     14288     14291     14292
     14290     14288     14291     14293     14291     14293     14295     14296
     14291     14293     14295     14297     14291     14293     14295     14298
     14292     14291     14293     14294     14292     14291     14293     14295
     14293     14295     14298     14299     14293     14295     14298     14300
     14294     14293     14295     14296     14294     14293     14295     14297
     14294     14293     14295     14298     14295     14298     14300     14301
     14295     14298     14300     14302     14296     14295     14298     14299
     14296     14295     14298     14300     14297     14295     14298     14299
     14297     14295     14298     14300     14298     14300     14302     14303
     14298     14300     14302     14304     14298     14300     14302     14305
     14299     14298     14300     14301     14299     14298     14300     14302
     14300     14302     14305     14306     14300     14302     14305     14307
     14301     14300     14302     14303     14301     14300     14302     14304
     14301     14300     14302     14305     14302     14305     14307     14308
     14302     14305     14307     14309     14303     14302     14305     14306
     14303     14302     14305     14307     14304     14302     14305     14306
     14304     14302     14305     14307     14305     14307     14309     14310
     14305     14307     14309     14311     14305     14307     14309     14312
     14306     14305     14307     14308     14306     14305     14307     14309
     14307     14309     14312     14313     14307     14309     14312     14314
     14307     14309     14312     14315     14308     14307     14309     14310
     14308     14307     14309     14311     14308     14307     14309     14312
     14309     14312     14315     14316     14309     14312     14315     14317
     14309     14312     14315     14318     14310     14309     14312     14313
     14310     14309     14312     14314     14310     14309     14312     14315
     14311     14309     14312     14313     14311     14309     14312     14314
     14311     14309     14312     14315     14312     14315     14318     14319
     14312     14315     14318     14320     14312     14315     14318     14321
     14313     14312     14315     14316     14313     14312     14315     14317
     14313     14312     14315     14318     14314     14312     14315     14316
     14314     14312     14315     14317     14314     14312     14315     14318
     14315     14318     14321     14322     14315     14318     14321     14323
     14315     14318     14321     14324     14316     14315     14318     14319
     14316     14315     14318     14320     14316     14315     14318     14321
     14317     14315     14318     14319     14317     14315     14318     14320
     14317     14315     14318     14321     14319     14318     14321     14322
     14319     14318     14321     14323     14319     14318     14321     14324
     14320     14318     14321     14322     14320     14318     14321     14323
     14320     14318     14321     14324     14325     14328     14331     14332
     14325     14328     14331     14333     14325     14328     14331     14334
     14326     14325     14328     14329     14326     14325     14328     14330
     14326     14325     14328     14331     14327     14325     14328     14329
     14327     14325     14328     14330     14327     14325     14328     14331
     14328     14331     14334     14335     14328     14331     14334     14336
     14328     14331     14334     14337     14329     14328     14331     14332
     14329     14328     14331     14333     14329     14328     14331     14334
     14330     14328     14331     14332     14330     14328     14331     14333
     14330     14328     14331     14334     14331     14334     14337     14338
     14331     14334     14337     14339     14331     14334     14337     14340
     14332     14331     14334     14335     14332     14331     14334     14336
     14332     14331     14334     14337     14333     14331     14334     14335
     14333     14331     14334     14336     14333     14331     14334     14337
     14334     14337     14340     14341     14334     14337     14340     14342
     14334     14337     14340     14343     14335     14334     14337     14338
     14335     14334     14337     14339     14335     14334     14337     14340
     14336     14334     14337     14338     14336     14334     14337     14339
     14336     14334     14337     14340     14337     14340     14343     14344
     14337     14340     14343     14345     14337     14340     14343     14346
     14338     14337     14340     14341     14338     14337     14340     14342
     14338     14337     14340     14343     14339     14337     14340     14341
     14339     14337     14340     14342     14339     14337     14340     14343
     14340     14343     14346     14347     14340     14343     14346     14348
     14340     14343     14346     14349     14341     14340     14343     14344
     14341     14340     14343     14345     14341     14340     14343     14346
     14342     14340     14343     14344     14342     14340     14343     14345
     14342     14340     14343     14346     14343     14346     14349     14350
     14343     14346     14349     14351     14343     14346     14349     14352
     14344     14343     14346     14347     14344     14343     14346     14348
     14344     14343     14346     14349     14345     14343     14346     14347
     14345     14343     14346     14348     14345     14343     14346     14349
     14346     14349     14352     14353     14346     14349     14352     14354
     14346     14349     14352     14355     14347     14346     14349     14350
     14347     14346     14349     14351     14347     14346     14349     14352
     14348     14346     14349     14350     14348     14346     14349     14351
     14348     14346     14349     14352     14349     14352     14355     14356
     14349     14352     14355     14357     14349     14352     14355     14358
     14350     14349     14352     14353     14350     14349     14352     14354
     14350     14349     14352     14355     14351     14349     14352     14353
     14351     14349     14352     14354     14351     14349     14352     14355
     14352     14355     14358     14359     14352     14355     14358     14360
     14352     14355     14358     14361     14353     14352     14355     14356
     14353     14352     14355     14357     14353     14352     14355     14358
     14354     14352     14355     14356     14354     14352     14355     14357
     14354     14352     14355     14358     14355     14358     14361     14362
     14355     14358     14361     14363     14355     14358     14361     14364
     14356     14355     14358     14359     14356     14355     14358     14360
     14356     14355     14358     14361     14357     14355     14358     14359
     14357     14355     14358     14360     14357     14355     14358     14361
     14358     14361     14364     14365     14358     14361     14364     14366
     14358     14361     14364     14367     14359     14358     14361     14362
     14359     14358     14361     14363     14359     14358     14361     14364
     14360     14358     14361     14362     14360     14358     14361     14363
     14360     14358     14361     14364     14361     14364     14367     14368
     14361     14364     14367     14369     14361     14364     14367     14370
     14362     14361     14364     14365     14362     14361     14364     14366
     14362     14361     14364     14367     14363     14361     14364     14365
     14363     14361     14364     14366     14363     14361     14364     14367
     14364     14367     14370     14371     14364     14367     14370     14372
     14364     14367     14370     14373     14365     14364     14367     14368
     14365     14364     14367     14369     14365     14364     14367     14370
     14366     14364     14367     14368     14366     14364     14367     14369
     14366     14364     14367     14370     14368     14367     14370     14371
     14368     14367     14370     14372     14368     14367     14370     14373
     14369     14367     14370     14371     14369     14367     14370     14372
     14369     14367     14370     14373     14374     14375     14390     14391
     14374     14375     14390     14392     14374     14375     14390     14396
     14375     14374     14378     14379     14375     14374     14378     14380
     14375     14374     14378     14381     14375     14374     14382     14383
     14375     14374     14382     14384     14375     14374     14382     14385
     14375     14374     14386     14387     14375     14374     14386     14388
     14375     14374     14386     14389     14375     14390     14396     14393
     14376     14375     14374     14378     14376     14375     14374     14382
     14376     14375     14374     14386     14376     14375     14390     14391
     14376     14375     14390     14392     14376     14375     14390     14396
     14377     14375     14374     14378     14377     14375     14374     14382
     14377     14375     14374     14386     14377     14375     14390     14391
     14377     14375     14390     14392     14377     14375     14390     14396
     14378     14374     14375     14390     14378     14374     14382     14383
     14378     14374     14382     14384     14378     14374     14382     14385
     14378     14374     14386     14387     14378     14374     14386     14388
     14378     14374     14386     14389     14379     14378     14374     14382
     14379     14378     14374     14386     14380     14378     14374     14382
     14380     14378     14374     14386     14381     14378     14374     14382
     14381     14378     14374     14386     14382     14374     14375     14390
     14382     14374     14386     14387     14382     14374     14386     14388
     14382     14374     14386     14389     14383     14382     14374     14386
     14384     14382     14374     14386     14385     14382     14374     14386
     14386     14374     14375     14390     14390     14396     14393     14394
     14390     14396     14393     14395     14390     14396     14393     14397
     14391     14390     14396     14393     14392     14390     14396     14393
     14393     14397     14398     14399     14393     14397     14398     14400
     14393     14397     14398     14401     14394     14393     14397     14398
     14395     14393     14397     14398     14396     14393     14397     14398
     14397     14398     14401     14402     14397     14398     14401     14403
     14397     14398     14401     14409     14398     14401     14403     14404
     14398     14401     14409     14410     14398     14401     14409     14411
     14398     14401     14409     14412     14399     14398     14401     14402
     14399     14398     14401     14403     14399     14398     14401     14409
     14400     14398     14401     14402     14400     14398     14401     14403
     14400     14398     14401     14409     14401     14403     14404     14405
     14401     14403     14404     14406     14401     14409     14412     14413
     14402     14401     14403     14404     14402     14401     14409     14410
     14402     14401     14409     14411     14402     14401     14409     14412
     14403     14401     14409     14410     14403     14401     14409     14411
     14403     14401     14409     14412     14403     14404     14406     14407
     14403     14404     14406     14408     14403     14404     14406     14418
     14404     14403     14401     14409     14404     14406     14418     14419
     14404     14406     14418     14420     14404     14406     14418     14421
     14405     14404     14406     14407     14405     14404     14406     14408
     14405     14404     14406     14418     14406     14418     14421     14422
     14406     14418     14421     14423     14406     14418     14421     14424
     14407     14406     14418     14419     14407     14406     14418     14420
     14407     14406     14418     14421     14408     14406     14418     14419
     14408     14406     14418     14420     14408     14406     14418     14421
     14409     14412     14413     14414     14409     14412     14413     14415
     14410     14409     14412     14413     14411     14409     14412     14413
     14412     14413     14415     14416     14412     14413     14415     14417
     14412     14413     14415     14465     14413     14415     14465     14466
     14413     14415     14465     14467     14413     14415     14465     14468
     14414     14413     14415     14416     14414     14413     14415     14417
     14414     14413     14415     14465     14415     14465     14468     14469
     14415     14465     14468     14470     14415     14465     14468     14471
     14416     14415     14465     14466     14416     14415     14465     14467
     14416     14415     14465     14468     14417     14415     14465     14466
     14417     14415     14465     14467     14417     14415     14465     14468
     14418     14421     14424     14425     14418     14421     14424     14426
     14419     14418     14421     14422     14419     14418     14421     14423
     14419     14418     14421     14424     14420     14418     14421     14422
     14420     14418     14421     14423     14420     14418     14421     14424
     14421     14424     14426     14427     14421     14424     14426     14428
     14422     14421     14424     14425     14422     14421     14424     14426
     14423     14421     14424     14425     14423     14421     14424     14426
     14424     14426     14428     14429     14424     14426     14428     14430
     14424     14426     14428     14431     14425     14424     14426     14427
     14425     14424     14426     14428     14426     14428     14431     14432
     14426     14428     14431     14433     14427     14426     14428     14429
     14427     14426     14428     14430     14427     14426     14428     14431
     14428     14431     14433     14434     14428     14431     14433     14435
     14429     14428     14431     14432     14429     14428     14431     14433
     14430     14428     14431     14432     14430     14428     14431     14433
     14431     14433     14435     14436     14431     14433     14435     14437
     14431     14433     14435     14438     14432     14431     14433     14434
     14432     14431     14433     14435     14433     14435     14438     14439
     14433     14435     14438     14440     14434     14433     14435     14436
     14434     14433     14435     14437     14434     14433     14435     14438
     14435     14438     14440     14441     14435     14438     14440     14442
     14436     14435     14438     14439     14436     14435     14438     14440
     14437     14435     14438     14439     14437     14435     14438     14440
     14438     14440     14442     14443     14438     14440     14442     14444
     14438     14440     14442     14445     14439     14438     14440     14441
     14439     14438     14440     14442     14440     14442     14445     14446
     14440     14442     14445     14447     14441     14440     14442     14443
     14441     14440     14442     14444     14441     14440     14442     14445
     14442     14445     14447     14448     14442     14445     14447     14449
     14443     14442     14445     14446     14443     14442     14445     14447
     14444     14442     14445     14446     14444     14442     14445     14447
     14445     14447     14449     14450     14445     14447     14449     14451
     14445     14447     14449     14452     14446     14445     14447     14448
     14446     14445     14447     14449     14447     14449     14452     14453
     14447     14449     14452     14454     14447     14449     14452     14455
     14448     14447     14449     14450     14448     14447     14449     14451
     14448     14447     14449     14452     14449     14452     14455     14456
     14449     14452     14455     14457     14449     14452     14455     14458
     14450     14449     14452     14453     14450     14449     14452     14454
     14450     14449     14452     14455     14451     14449     14452     14453
     14451     14449     14452     14454     14451     14449     14452     14455
     14452     14455     14458     14459     14452     14455     14458     14460
     14452     14455     14458     14461     14453     14452     14455     14456
     14453     14452     14455     14457     14453     14452     14455     14458
     14454     14452     14455     14456     14454     14452     14455     14457
     14454     14452     14455     14458     14455     14458     14461     14462
     14455     14458     14461     14463     14455     14458     14461     14464
     14456     14455     14458     14459     14456     14455     14458     14460
     14456     14455     14458     14461     14457     14455     14458     14459
     14457     14455     14458     14460     14457     14455     14458     14461
     14459     14458     14461     14462     14459     14458     14461     14463
     14459     14458     14461     14464     14460     14458     14461     14462
     14460     14458     14461     14463     14460     14458     14461     14464
     14465     14468     14471     14472     14465     14468     14471     14473
     14465     14468     14471     14474     14466     14465     14468     14469
     14466     14465     14468     14470     14466     14465     14468     14471
     14467     14465     14468     14469     14467     14465     14468     14470
     14467     14465     14468     14471     14468     14471     14474     14475
     14468     14471     14474     14476     14468     14471     14474     14477
     14469     14468     14471     14472     14469     14468     14471     14473
     14469     14468     14471     14474     14470     14468     14471     14472
     14470     14468     14471     14473     14470     14468     14471     14474
     14471     14474     14477     14478     14471     14474     14477     14479
     14471     14474     14477     14480     14472     14471     14474     14475
     14472     14471     14474     14476     14472     14471     14474     14477
     14473     14471     14474     14475     14473     14471     14474     14476
     14473     14471     14474     14477     14474     14477     14480     14481
     14474     14477     14480     14482     14474     14477     14480     14483
     14475     14474     14477     14478     14475     14474     14477     14479
     14475     14474     14477     14480     14476     14474     14477     14478
     14476     14474     14477     14479     14476     14474     14477     14480
     14477     14480     14483     14484     14477     14480     14483     14485
     14477     14480     14483     14486     14478     14477     14480     14481
     14478     14477     14480     14482     14478     14477     14480     14483
     14479     14477     14480     14481     14479     14477     14480     14482
     14479     14477     14480     14483     14480     14483     14486     14487
     14480     14483     14486     14488     14480     14483     14486     14489
     14481     14480     14483     14484     14481     14480     14483     14485
     14481     14480     14483     14486     14482     14480     14483     14484
     14482     14480     14483     14485     14482     14480     14483     14486
     14483     14486     14489     14490     14483     14486     14489     14491
     14483     14486     14489     14492     14484     14483     14486     14487
     14484     14483     14486     14488     14484     14483     14486     14489
     14485     14483     14486     14487     14485     14483     14486     14488
     14485     14483     14486     14489     14486     14489     14492     14493
     14486     14489     14492     14494     14486     14489     14492     14495
     14487     14486     14489     14490     14487     14486     14489     14491
     14487     14486     14489     14492     14488     14486     14489     14490
     14488     14486     14489     14491     14488     14486     14489     14492
     14489     14492     14495     14496     14489     14492     14495     14497
     14489     14492     14495     14498     14490     14489     14492     14493
     14490     14489     14492     14494     14490     14489     14492     14495
     14491     14489     14492     14493     14491     14489     14492     14494
     14491     14489     14492     14495     14492     14495     14498     14499
     14492     14495     14498     14500     14492     14495     14498     14501
     14493     14492     14495     14496     14493     14492     14495     14497
     14493     14492     14495     14498     14494     14492     14495     14496
     14494     14492     14495     14497     14494     14492     14495     14498
     14495     14498     14501     14502     14495     14498     14501     14503
     14495     14498     14501     14504     14496     14495     14498     14499
     14496     14495     14498     14500     14496     14495     14498     14501
     14497     14495     14498     14499     14497     14495     14498     14500
     14497     14495     14498     14501     14498     14501     14504     14505
     14498     14501     14504     14506     14498     14501     14504     14507
     14499     14498     14501     14502     14499     14498     14501     14503
     14499     14498     14501     14504     14500     14498     14501     14502
     14500     14498     14501     14503     14500     14498     14501     14504
     14501     14504     14507     14508     14501     14504     14507     14509
     14501     14504     14507     14510     14502     14501     14504     14505
     14502     14501     14504     14506     14502     14501     14504     14507
     14503     14501     14504     14505     14503     14501     14504     14506
     14503     14501     14504     14507     14504     14507     14510     14511
     14504     14507     14510     14512     14504     14507     14510     14513
     14505     14504     14507     14508     14505     14504     14507     14509
     14505     14504     14507     14510     14506     14504     14507     14508
     14506     14504     14507     14509     14506     14504     14507     14510
     14508     14507     14510     14511     14508     14507     14510     14512
     14508     14507     14510     14513     14509     14507     14510     14511
     14509     14507     14510     14512     14509     14507     14510     14513
     14514     14527     14530     14531     14514     14527     14530     14532
     14514     14527     14530     14537     14515     14514     14519     14520
     14515     14514     14519     14521     14515     14514     14519     14522
     14515     14514     14523     14524     14515     14514     14523     14525
     14515     14514     14523     14526     14515     14514     14527     14528
     14515     14514     14527     14529     14515     14514     14527     14530
     14516     14515     14514     14519     14516     14515     14514     14523
     14516     14515     14514     14527     14517     14515     14514     14519
     14517     14515     14514     14523     14517     14515     14514     14527
     14518     14515     14514     14519     14518     14515     14514     14523
     14518     14515     14514     14527     14519     14514     14523     14524
     14519     14514     14523     14525     14519     14514     14523     14526
     14519     14514     14527     14528     14519     14514     14527     14529
     14519     14514     14527     14530     14520     14519     14514     14523
     14520     14519     14514     14527     14521     14519     14514     14523
     14521     14519     14514     14527     14522     14519     14514     14523
     14522     14519     14514     14527     14523     14514     14527     14528
     14523     14514     14527     14529     14523     14514     14527     14530
     14524     14523     14514     14527     14525     14523     14514     14527
     14526     14523     14514     14527     14527     14530     14537     14533
     14528     14527     14530     14531     14528     14527     14530     14532
     14528     14527     14530     14537     14529     14527     14530     14531
     14529     14527     14530     14532     14529     14527     14530     14537
     14530     14537     14533     14534     14530     14537     14533     14535
     14530     14537     14533     14536     14531     14530     14537     14533
     14532     14530     14537     14533     14533     14536     14538     14539
     14533     14536     14538     14540     14533     14536     14538     14543
     14534     14533     14536     14538     14535     14533     14536     14538
     14536     14538     14543     14541     14536     14538     14543     14544
     14536     14538     14543     14545     14537     14533     14536     14538
     14538     14543     14541     14542     14538     14543     14541     14593
     14538     14543     14545     14546     14538     14543     14545     14547
     14538     14543     14545     14549     14539     14538     14543     14541
     14539     14538     14543     14544     14539     14538     14543     14545
     14540     14538     14543     14541     14540     14538     14543     14544
     14540     14538     14543     14545     14541     14543     14545     14546
     14541     14543     14545     14547     14541     14543     14545     14549
     14541     14593     14595     14596     14541     14593     14595     14597
     14541     14593     14595     14598     14542     14541     14543     14544
     14542     14541     14543     14545     14542     14541     14593     14594
     14542     14541     14593     14595     14543     14541     14593     14594
     14543     14541     14593     14595     14543     14545     14547     14548
     14543     14545     14549     14550     14543     14545     14549     14551
     14544     14543     14541     14593     14544     14543     14545     14546
     14544     14543     14545     14547     14544     14543     14545     14549
     14545     14543     14541     14593     14545     14549     14551     14552
     14545     14549     14551     14553     14546     14545     14547     14548
     14546     14545     14549     14550     14546     14545     14549     14551
     14547     14545     14549     14550     14547     14545     14549     14551
     14548     14547     14545     14549     14549     14551     14553     14554
     14549     14551     14553     14555     14549     14551     14553     14556
     14550     14549     14551     14552     14550     14549     14551     14553
     14551     14553     14556     14557     14551     14553     14556     14558
     14551     14553     14556     14559     14552     14551     14553     14554
     14552     14551     14553     14555     14552     14551     14553     14556
     14553     14556     14559     14560     14553     14556     14559     14561
     14553     14556     14559     14562     14554     14553     14556     14557
     14554     14553     14556     14558     14554     14553     14556     14559
     14555     14553     14556     14557     14555     14553     14556     14558
     14555     14553     14556     14559     14556     14559     14562     14563
     14556     14559     14562     14564     14556     14559     14562     14565
     14557     14556     14559     14560     14557     14556     14559     14561
     14557     14556     14559     14562     14558     14556     14559     14560
     14558     14556     14559     14561     14558     14556     14559     14562
     14559     14562     14565     14566     14559     14562     14565     14567
     14559     14562     14565     14568     14560     14559     14562     14563
     14560     14559     14562     14564     14560     14559     14562     14565
     14561     14559     14562     14563     14561     14559     14562     14564
     14561     14559     14562     14565     14562     14565     14568     14569
     14562     14565     14568     14570     14562     14565     14568     14571
     14563     14562     14565     14566     14563     14562     14565     14567
     14563     14562     14565     14568     14564     14562     14565     14566
     14564     14562     14565     14567     14564     14562     14565     14568
     14565     14568     14571     14572     14565     14568     14571     14573
     14565     14568     14571     14574     14566     14565     14568     14569
     14566     14565     14568     14570     14566     14565     14568     14571
     14567     14565     14568     14569     14567     14565     14568     14570
     14567     14565     14568     14571     14568     14571     14574     14575
     14568     14571     14574     14576     14568     14571     14574     14577
     14569     14568     14571     14572     14569     14568     14571     14573
     14569     14568     14571     14574     14570     14568     14571     14572
     14570     14568     14571     14573     14570     14568     14571     14574
     14571     14574     14577     14578     14571     14574     14577     14579
     14571     14574     14577     14580     14572     14571     14574     14575
     14572     14571     14574     14576     14572     14571     14574     14577
     14573     14571     14574     14575     14573     14571     14574     14576
     14573     14571     14574     14577     14574     14577     14580     14581
     14574     14577     14580     14582     14574     14577     14580     14583
     14575     14574     14577     14578     14575     14574     14577     14579
     14575     14574     14577     14580     14576     14574     14577     14578
     14576     14574     14577     14579     14576     14574     14577     14580
     14577     14580     14583     14584     14577     14580     14583     14585
     14577     14580     14583     14586     14578     14577     14580     14581
     14578     14577     14580     14582     14578     14577     14580     14583
     14579     14577     14580     14581     14579     14577     14580     14582
     14579     14577     14580     14583     14580     14583     14586     14587
     14580     14583     14586     14588     14580     14583     14586     14589
     14581     14580     14583     14584     14581     14580     14583     14585
     14581     14580     14583     14586     14582     14580     14583     14584
     14582     14580     14583     14585     14582     14580     14583     14586
     14583     14586     14589     14590     14583     14586     14589     14591
     14583     14586     14589     14592     14584     14583     14586     14587
     14584     14583     14586     14588     14584     14583     14586     14589
     14585     14583     14586     14587     14585     14583     14586     14588
     14585     14583     14586     14589     14587     14586     14589     14590
     14587     14586     14589     14591     14587     14586     14589     14592
     14588     14586     14589     14590     14588     14586     14589     14591
     14588     14586     14589     14592     14593     14595     14598     14599
     14593     14595     14598     14600     14593     14595     14598     14601
     14594     14593     14595     14596     14594     14593     14595     14597
     14594     14593     14595     14598     14595     14598     14601     14602
     14595     14598     14601     14603     14595     14598     14601     14604
     14596     14595     14598     14599     14596     14595     14598     14600
     14596     14595     14598     14601     14597     14595     14598     14599
     14597     14595     14598     14600     14597     14595     14598     14601
     14598     14601     14604     14605     14598     14601     14604     14606
     14598     14601     14604     14607     14599     14598     14601     14602
     14599     14598     14601     14603     14599     14598     14601     14604
     14600     14598     14601     14602     14600     14598     14601     14603
     14600     14598     14601     14604     14601     14604     14607     14608
     14601     14604     14607     14609     14601     14604     14607     14610
     14602     14601     14604     14605     14602     14601     14604     14606
     14602     14601     14604     14607     14603     14601     14604     14605
     14603     14601     14604     14606     14603     14601     14604     14607
     14604     14607     14610     14611     14604     14607     14610     14612
     14604     14607     14610     14613     14605     14604     14607     14608
     14605     14604     14607     14609     14605     14604     14607     14610
     14606     14604     14607     14608     14606     14604     14607     14609
     14606     14604     14607     14610     14607     14610     14613     14614
     14607     14610     14613     14615     14607     14610     14613     14616
     14608     14607     14610     14611     14608     14607     14610     14612
     14608     14607     14610     14613     14609     14607     14610     14611
     14609     14607     14610     14612     14609     14607     14610     14613
     14610     14613     14616     14617     14610     14613     14616     14618
     14611     14610     14613     14614     14611     14610     14613     14615
     14611     14610     14613     14616     14612     14610     14613     14614
     14612     14610     14613     14615     14612     14610     14613     14616
     14613     14616     14618     14619     14613     14616     14618     14620
     14614     14613     14616     14617     14614     14613     14616     14618
     14615     14613     14616     14617     14615     14613     14616     14618
     14616     14618     14620     14621     14616     14618     14620     14622
     14616     14618     14620     14623     14617     14616     14618     14619
     14617     14616     14618     14620     14618     14620     14623     14624
     14618     14620     14623     14625     14618     14620     14623     14626
     14619     14618     14620     14621     14619     14618     14620     14622
     14619     14618     14620     14623     14620     14623     14626     14627
     14620     14623     14626     14628     14620     14623     14626     14629
     14621     14620     14623     14624     14621     14620     14623     14625
     14621     14620     14623     14626     14622     14620     14623     14624
     14622     14620     14623     14625     14622     14620     14623     14626
     14623     14626     14629     14630     14623     14626     14629     14631
     14623     14626     14629     14632     14624     14623     14626     14627
     14624     14623     14626     14628     14624     14623     14626     14629
     14625     14623     14626     14627     14625     14623     14626     14628
     14625     14623     14626     14629     14626     14629     14632     14633
     14626     14629     14632     14634     14626     14629     14632     14635
     14627     14626     14629     14630     14627     14626     14629     14631
     14627     14626     14629     14632     14628     14626     14629     14630
     14628     14626     14629     14631     14628     14626     14629     14632
     14629     14632     14635     14636     14629     14632     14635     14637
     14629     14632     14635     14638     14630     14629     14632     14633
     14630     14629     14632     14634     14630     14629     14632     14635
     14631     14629     14632     14633     14631     14629     14632     14634
     14631     14629     14632     14635     14632     14635     14638     14639
     14632     14635     14638     14640     14632     14635     14638     14641
     14633     14632     14635     14636     14633     14632     14635     14637
     14633     14632     14635     14638     14634     14632     14635     14636
     14634     14632     14635     14637     14634     14632     14635     14638
     14635     14638     14641     14642     14635     14638     14641     14643
     14635     14638     14641     14644     14636     14635     14638     14639
     14636     14635     14638     14640     14636     14635     14638     14641
     14637     14635     14638     14639     14637     14635     14638     14640
     14637     14635     14638     14641     14639     14638     14641     14642
     14639     14638     14641     14643     14639     14638     14641     14644
     14640     14638     14641     14642     14640     14638     14641     14643
     14640     14638     14641     14644     14645     14649     14652     14653
     14645     14649     14652     14683     14645     14691     14688     14683
     14645     14691     14688     14689     14645     14691     14688     14690
     14646     14645     14647     14648     14646     14645     14649     14650
     14646     14645     14649     14651     14646     14645     14649     14652
     14646     14645     14691     14688     14646     14645     14691     14692
     14646     14645     14691     14693     14647     14645     14649     14650
     14647     14645     14649     14651     14647     14645     14649     14652
     14647     14645     14691     14688     14647     14645     14691     14692
     14647     14645     14691     14693     14648     14647     14645     14649
     14648     14647     14645     14691     14649     14645     14691     14688
     14649     14645     14691     14692     14649     14645     14691     14693
     14649     14652     14653     14654     14649     14652     14653     14655
     14649     14652     14683     14681     14649     14652     14683     14684
     14649     14652     14683     14688     14650     14649     14645     14691
     14650     14649     14652     14653     14650     14649     14652     14683
     14651     14649     14645     14691     14651     14649     14652     14653
     14651     14649     14652     14683     14652     14649     14645     14691
     14652     14653     14655     14656     14652     14653     14655     14657
     14652     14653     14655     14658     14652     14683     14681     14658
     14652     14683     14681     14678     14652     14683     14681     14682
     14652     14683     14684     14685     14652     14683     14684     14686
     14652     14683     14684     14687     14652     14683     14688     14689
     14652     14683     14688     14690     14652     14683     14688     14691
     14653     14652     14683     14681     14653     14652     14683     14684
     14653     14652     14683     14688     14653     14655     14658     14659
     14653     14655     14658     14660     14653     14655     14658     14681
     14654     14653     14652     14683     14654     14653     14655     14656
     14654     14653     14655     14657     14654     14653     14655     14658
     14655     14653     14652     14683     14655     14658     14660     14661
     14655     14658     14660     14662     14655     14658     14660     14670
     14655     14658     14681     14678     14655     14658     14681     14682
     14655     14658     14681     14683     14656     14655     14658     14659
     14656     14655     14658     14660     14656     14655     14658     14681
     14657     14655     14658     14659     14657     14655     14658     14660
     14657     14655     14658     14681     14658     14660     14662     14663
     14658     14660     14662     14664     14658     14660     14662     14665
     14658     14660     14670     14668     14658     14660     14670     14671
     14658     14660     14670     14675     14658     14681     14678     14675
     14658     14681     14678     14679     14658     14681     14678     14680
     14658     14681     14683     14684     14658     14681     14683     14688
     14659     14658     14660     14661     14659     14658     14660     14662
     14659     14658     14660     14670     14659     14658     14681     14678
     14659     14658     14681     14682     14659     14658     14681     14683
     14660     14658     14681     14678     14660     14658     14681     14682
     14660     14658     14681     14683     14660     14662     14665     14666
     14660     14662     14665     14667     14660     14662     14665     14668
     14660     14670     14668     14665     14660     14670     14668     14669
     14660     14670     14668     14694     14660     14670     14671     14672
     14660     14670     14671     14673     14660     14670     14671     14674
     14660     14670     14675     14676     14660     14670     14675     14677
     14660     14670     14675     14678     14661     14660     14658     14681
     14661     14660     14662     14663     14661     14660     14662     14664
     14661     14660     14662     14665     14661     14660     14670     14668
     14661     14660     14670     14671     14661     14660     14670     14675
     14662     14660     14658     14681     14662     14660     14670     14668
     14662     14660     14670     14671     14662     14660     14670     14675
     14662     14665     14668     14669     14662     14665     14668     14670
     14662     14665     14668     14694     14663     14662     14660     14670
     14663     14662     14665     14666     14663     14662     14665     14667
     14663     14662     14665     14668     14664     14662     14660     14670
     14664     14662     14665     14666     14664     14662     14665     14667
     14664     14662     14665     14668     14665     14662     14660     14670
     14665     14668     14670     14671     14665     14668     14670     14675
     14665     14668     14694     14695     14665     14668     14694     14696
     14665     14668     14694     14700     14666     14665     14668     14669
     14666     14665     14668     14670     14666     14665     14668     14694
     14667     14665     14668     14669     14667     14665     14668     14670
     14667     14665     14668     14694     14668     14670     14671     14672
     14668     14670     14671     14673     14668     14670     14671     14674
     14668     14670     14675     14676     14668     14670     14675     14677
     14668     14670     14675     14678     14668     14694     14696     14697
     14668     14694     14696     14698     14668     14694     14696     14699
     14668     14694     14700     14701     14668     14694     14700     14702
     14668     14694     14700     14703     14669     14668     14670     14671
     14669     14668     14670     14675     14669     14668     14694     14695
     14669     14668     14694     14696     14669     14668     14694     14700
     14670     14660     14658     14681     14670     14668     14694     14695
     14670     14668     14694     14696     14670     14668     14694     14700
     14670     14675     14678     14679     14670     14675     14678     14680
     14670     14675     14678     14681     14671     14670     14668     14694
     14671     14670     14675     14676     14671     14670     14675     14677
     14671     14670     14675     14678     14672     14671     14670     14675
     14673     14671     14670     14675     14674     14671     14670     14675
     14675     14670     14668     14694     14675     14678     14681     14682
     14675     14678     14681     14683     14676     14675     14678     14679
     14676     14675     14678     14680     14676     14675     14678     14681
     14677     14675     14678     14679     14677     14675     14678     14680
     14677     14675     14678     14681     14678     14681     14683     14684
     14678     14681     14683     14688     14679     14678     14681     14682
     14679     14678     14681     14683     14680     14678     14681     14682
     14680     14678     14681     14683     14681     14683     14684     14685
     14681     14683     14684     14686     14681     14683     14684     14687
     14681     14683     14688     14689     14681     14683     14688     14690
     14681     14683     14688     14691     14682     14681     14683     14684
     14682     14681     14683     14688     14683     14688     14691     14692
     14683     14688     14691     14693     14684     14683     14688     14689
     14684     14683     14688     14690     14684     14683     14688     14691
     14685     14684     14683     14688     14686     14684     14683     14688
     14687     14684     14683     14688     14689     14688     14691     14692
     14689     14688     14691     14693     14690     14688     14691     14692
     14690     14688     14691     14693     14694     14700     14703     14704
     14694     14700     14703     14705     14694     14700     14703     14706
     14695     14694     14696     14697     14695     14694     14696     14698
     14695     14694     14696     14699     14695     14694     14700     14701
     14695     14694     14700     14702     14695     14694     14700     14703
     14696     14694     14700     14701     14696     14694     14700     14702
     14696     14694     14700     14703     14697     14696     14694     14700
     14698     14696     14694     14700     14699     14696     14694     14700
     14700     14703     14706     14707     14700     14703     14706     14708
     14700     14703     14706     14709     14701     14700     14703     14704
     14701     14700     14703     14705     14701     14700     14703     14706
     14702     14700     14703     14704     14702     14700     14703     14705
     14702     14700     14703     14706     14703     14706     14709     14710
     14703     14706     14709     14711     14703     14706     14709     14715
     14704     14703     14706     14707     14704     14703     14706     14708
     14704     14703     14706     14709     14705     14703     14706     14707
     14705     14703     14706     14708     14705     14703     14706     14709
     14706     14709     14711     14712     14706     14709     14711     14713
     14706     14709     14711     14714     14706     14709     14715     14716
     14706     14709     14715     14717     14706     14709     14715     14718
     14707     14706     14709     14710     14707     14706     14709     14711
     14707     14706     14709     14715     14708     14706     14709     14710
     14708     14706     14709     14711     14708     14706     14709     14715
     14710     14709     14711     14712     14710     14709     14711     14713
     14710     14709     14711     14714     14710     14709     14715     14716
     14710     14709     14715     14717     14710     14709     14715     14718
     14711     14709     14715     14716     14711     14709     14715     14717
     14711     14709     14715     14718     14712     14711     14709     14715
     14713     14711     14709     14715     14714     14711     14709     14715
     14719     14723     14725     14726     14719     14723     14725     14727
     14719     14723     14728     14729     14719     14723     14728     14730
     14719     14723     14728     14734     14720     14719     14723     14724
     14720     14719     14723     14725     14720     14719     14723     14728
     14721     14719     14723     14724     14721     14719     14723     14725
     14721     14719     14723     14728     14722     14719     14723     14724
     14722     14719     14723     14725     14722     14719     14723     14728
     14723     14728     14734     14731     14724     14723     14725     14726
     14724     14723     14725     14727     14724     14723     14728     14729
     14724     14723     14728     14730     14724     14723     14728     14734
     14725     14723     14728     14729     14725     14723     14728     14730
     14725     14723     14728     14734     14726     14725     14723     14728
     14727     14725     14723     14728     14728     14734     14731     14732
     14728     14734     14731     14733     14728     14734     14731     14735
     14729     14728     14734     14731     14730     14728     14734     14731
     14731     14735     14736     14737     14731     14735     14736     14738
     14731     14735     14736     14739     14732     14731     14735     14736
     14733     14731     14735     14736     14734     14731     14735     14736
     14735     14736     14739     14740     14735     14736     14739     14741
     14735     14736     14739     14747     14736     14739     14741     14742
     14736     14739     14747     14748     14736     14739     14747     14749
     14736     14739     14747     14750     14737     14736     14739     14740
     14737     14736     14739     14741     14737     14736     14739     14747
     14738     14736     14739     14740     14738     14736     14739     14741
     14738     14736     14739     14747     14739     14741     14742     14743
     14739     14741     14742     14744     14739     14747     14750     14751
     14740     14739     14741     14742     14740     14739     14747     14748
     14740     14739     14747     14749     14740     14739     14747     14750
     14741     14739     14747     14748     14741     14739     14747     14749
     14741     14739     14747     14750     14741     14742     14744     14745
     14741     14742     14744     14746     14741     14742     14744     14756
     14742     14741     14739     14747     14742     14744     14756     14757
     14742     14744     14756     14758     14742     14744     14756     14759
     14743     14742     14744     14745     14743     14742     14744     14746
     14743     14742     14744     14756     14744     14756     14759     14760
     14744     14756     14759     14761     14744     14756     14759     14762
     14745     14744     14756     14757     14745     14744     14756     14758
     14745     14744     14756     14759     14746     14744     14756     14757
     14746     14744     14756     14758     14746     14744     14756     14759
     14747     14750     14751     14752     14747     14750     14751     14753
     14748     14747     14750     14751     14749     14747     14750     14751
     14750     14751     14753     14754     14750     14751     14753     14755
     14750     14751     14753     14803     14751     14753     14803     14804
     14751     14753     14803     14805     14751     14753     14803     14806
     14752     14751     14753     14754     14752     14751     14753     14755
     14752     14751     14753     14803     14753     14803     14806     14807
     14753     14803     14806     14808     14753     14803     14806     14809
     14754     14753     14803     14804     14754     14753     14803     14805
     14754     14753     14803     14806     14755     14753     14803     14804
     14755     14753     14803     14805     14755     14753     14803     14806
     14756     14759     14762     14763     14756     14759     14762     14764
     14757     14756     14759     14760     14757     14756     14759     14761
     14757     14756     14759     14762     14758     14756     14759     14760
     14758     14756     14759     14761     14758     14756     14759     14762
     14759     14762     14764     14765     14759     14762     14764     14766
     14760     14759     14762     14763     14760     14759     14762     14764
     14761     14759     14762     14763     14761     14759     14762     14764
     14762     14764     14766     14767     14762     14764     14766     14768
     14762     14764     14766     14769     14763     14762     14764     14765
     14763     14762     14764     14766     14764     14766     14769     14770
     14764     14766     14769     14771     14765     14764     14766     14767
     14765     14764     14766     14768     14765     14764     14766     14769
     14766     14769     14771     14772     14766     14769     14771     14773
     14767     14766     14769     14770     14767     14766     14769     14771
     14768     14766     14769     14770     14768     14766     14769     14771
     14769     14771     14773     14774     14769     14771     14773     14775
     14769     14771     14773     14776     14770     14769     14771     14772
     14770     14769     14771     14773     14771     14773     14776     14777
     14771     14773     14776     14778     14772     14771     14773     14774
     14772     14771     14773     14775     14772     14771     14773     14776
     14773     14776     14778     14779     14773     14776     14778     14780
     14774     14773     14776     14777     14774     14773     14776     14778
     14775     14773     14776     14777     14775     14773     14776     14778
     14776     14778     14780     14781     14776     14778     14780     14782
     14776     14778     14780     14783     14777     14776     14778     14779
     14777     14776     14778     14780     14778     14780     14783     14784
     14778     14780     14783     14785     14779     14778     14780     14781
     14779     14778     14780     14782     14779     14778     14780     14783
     14780     14783     14785     14786     14780     14783     14785     14787
     14781     14780     14783     14784     14781     14780     14783     14785
     14782     14780     14783     14784     14782     14780     14783     14785
     14783     14785     14787     14788     14783     14785     14787     14789
     14783     14785     14787     14790     14784     14783     14785     14786
     14784     14783     14785     14787     14785     14787     14790     14791
     14785     14787     14790     14792     14785     14787     14790     14793
     14786     14785     14787     14788     14786     14785     14787     14789
     14786     14785     14787     14790     14787     14790     14793     14794
     14787     14790     14793     14795     14787     14790     14793     14796
     14788     14787     14790     14791     14788     14787     14790     14792
     14788     14787     14790     14793     14789     14787     14790     14791
     14789     14787     14790     14792     14789     14787     14790     14793
     14790     14793     14796     14797     14790     14793     14796     14798
     14790     14793     14796     14799     14791     14790     14793     14794
     14791     14790     14793     14795     14791     14790     14793     14796
     14792     14790     14793     14794     14792     14790     14793     14795
     14792     14790     14793     14796     14793     14796     14799     14800
     14793     14796     14799     14801     14793     14796     14799     14802
     14794     14793     14796     14797     14794     14793     14796     14798
     14794     14793     14796     14799     14795     14793     14796     14797
     14795     14793     14796     14798     14795     14793     14796     14799
     14797     14796     14799     14800     14797     14796     14799     14801
     14797     14796     14799     14802     14798     14796     14799     14800
     14798     14796     14799     14801     14798     14796     14799     14802
     14803     14806     14809     14810     14803     14806     14809     14811
     14803     14806     14809     14812     14804     14803     14806     14807
     14804     14803     14806     14808     14804     14803     14806     14809
     14805     14803     14806     14807     14805     14803     14806     14808
     14805     14803     14806     14809     14806     14809     14812     14813
     14806     14809     14812     14814     14806     14809     14812     14815
     14807     14806     14809     14810     14807     14806     14809     14811
     14807     14806     14809     14812     14808     14806     14809     14810
     14808     14806     14809     14811     14808     14806     14809     14812
     14809     14812     14815     14816     14809     14812     14815     14817
     14809     14812     14815     14818     14810     14809     14812     14813
     14810     14809     14812     14814     14810     14809     14812     14815
     14811     14809     14812     14813     14811     14809     14812     14814
     14811     14809     14812     14815     14812     14815     14818     14819
     14812     14815     14818     14820     14812     14815     14818     14821
     14813     14812     14815     14816     14813     14812     14815     14817
     14813     14812     14815     14818     14814     14812     14815     14816
     14814     14812     14815     14817     14814     14812     14815     14818
     14815     14818     14821     14822     14815     14818     14821     14823
     14815     14818     14821     14824     14816     14815     14818     14819
     14816     14815     14818     14820     14816     14815     14818     14821
     14817     14815     14818     14819     14817     14815     14818     14820
     14817     14815     14818     14821     14818     14821     14824     14825
     14818     14821     14824     14826     14818     14821     14824     14827
     14819     14818     14821     14822     14819     14818     14821     14823
     14819     14818     14821     14824     14820     14818     14821     14822
     14820     14818     14821     14823     14820     14818     14821     14824
     14821     14824     14827     14828     14821     14824     14827     14829
     14821     14824     14827     14830     14822     14821     14824     14825
     14822     14821     14824     14826     14822     14821     14824     14827
     14823     14821     14824     14825     14823     14821     14824     14826
     14823     14821     14824     14827     14824     14827     14830     14831
     14824     14827     14830     14832     14824     14827     14830     14833
     14825     14824     14827     14828     14825     14824     14827     14829
     14825     14824     14827     14830     14826     14824     14827     14828
     14826     14824     14827     14829     14826     14824     14827     14830
     14827     14830     14833     14834     14827     14830     14833     14835
     14827     14830     14833     14836     14828     14827     14830     14831
     14828     14827     14830     14832     14828     14827     14830     14833
     14829     14827     14830     14831     14829     14827     14830     14832
     14829     14827     14830     14833     14830     14833     14836     14837
     14830     14833     14836     14838     14830     14833     14836     14839
     14831     14830     14833     14834     14831     14830     14833     14835
     14831     14830     14833     14836     14832     14830     14833     14834
     14832     14830     14833     14835     14832     14830     14833     14836
     14833     14836     14839     14840     14833     14836     14839     14841
     14833     14836     14839     14842     14834     14833     14836     14837
     14834     14833     14836     14838     14834     14833     14836     14839
     14835     14833     14836     14837     14835     14833     14836     14838
     14835     14833     14836     14839     14836     14839     14842     14843
     14836     14839     14842     14844     14836     14839     14842     14845
     14837     14836     14839     14840     14837     14836     14839     14841
     14837     14836     14839     14842     14838     14836     14839     14840
     14838     14836     14839     14841     14838     14836     14839     14842
     14839     14842     14845     14846     14839     14842     14845     14847
     14839     14842     14845     14848     14840     14839     14842     14843
     14840     14839     14842     14844     14840     14839     14842     14845
     14841     14839     14842     14843     14841     14839     14842     14844
     14841     14839     14842     14845     14842     14845     14848     14849
     14842     14845     14848     14850     14842     14845     14848     14851
     14843     14842     14845     14846     14843     14842     14845     14847
     14843     14842     14845     14848     14844     14842     14845     14846
     14844     14842     14845     14847     14844     14842     14845     14848
     14846     14845     14848     14849     14846     14845     14848     14850
     14846     14845     14848     14851     14847     14845     14848     14849
     14847     14845     14848     14850     14847     14845     14848     14851
     14852     14856     14859     14860     14852     14856     14859     14890
     14852     14898     14895     14890     14852     14898     14895     14896
     14852     14898     14895     14897     14853     14852     14854     14855
     14853     14852     14856     14857     14853     14852     14856     14858
     14853     14852     14856     14859     14853     14852     14898     14895
     14853     14852     14898     14899     14853     14852     14898     14900
     14854     14852     14856     14857     14854     14852     14856     14858
     14854     14852     14856     14859     14854     14852     14898     14895
     14854     14852     14898     14899     14854     14852     14898     14900
     14855     14854     14852     14856     14855     14854     14852     14898
     14856     14852     14898     14895     14856     14852     14898     14899
     14856     14852     14898     14900     14856     14859     14860     14861
     14856     14859     14860     14862     14856     14859     14890     14888
     14856     14859     14890     14891     14856     14859     14890     14895
     14857     14856     14852     14898     14857     14856     14859     14860
     14857     14856     14859     14890     14858     14856     14852     14898
     14858     14856     14859     14860     14858     14856     14859     14890
     14859     14856     14852     14898     14859     14860     14862     14863
     14859     14860     14862     14864     14859     14860     14862     14865
     14859     14890     14888     14865     14859     14890     14888     14885
     14859     14890     14888     14889     14859     14890     14891     14892
     14859     14890     14891     14893     14859     14890     14891     14894
     14859     14890     14895     14896     14859     14890     14895     14897
     14859     14890     14895     14898     14860     14859     14890     14888
     14860     14859     14890     14891     14860     14859     14890     14895
     14860     14862     14865     14866     14860     14862     14865     14867
     14860     14862     14865     14888     14861     14860     14859     14890
     14861     14860     14862     14863     14861     14860     14862     14864
     14861     14860     14862     14865     14862     14860     14859     14890
     14862     14865     14867     14868     14862     14865     14867     14869
     14862     14865     14867     14877     14862     14865     14888     14885
     14862     14865     14888     14889     14862     14865     14888     14890
     14863     14862     14865     14866     14863     14862     14865     14867
     14863     14862     14865     14888     14864     14862     14865     14866
     14864     14862     14865     14867     14864     14862     14865     14888
     14865     14867     14869     14870     14865     14867     14869     14871
     14865     14867     14869     14872     14865     14867     14877     14875
     14865     14867     14877     14878     14865     14867     14877     14882
     14865     14888     14885     14882     14865     14888     14885     14886
     14865     14888     14885     14887     14865     14888     14890     14891
     14865     14888     14890     14895     14866     14865     14867     14868
     14866     14865     14867     14869     14866     14865     14867     14877
     14866     14865     14888     14885     14866     14865     14888     14889
     14866     14865     14888     14890     14867     14865     14888     14885
     14867     14865     14888     14889     14867     14865     14888     14890
     14867     14869     14872     14873     14867     14869     14872     14874
     14867     14869     14872     14875     14867     14877     14875     14872
     14867     14877     14875     14876     14867     14877     14875     14901
     14867     14877     14878     14879     14867     14877     14878     14880
     14867     14877     14878     14881     14867     14877     14882     14883
     14867     14877     14882     14884     14867     14877     14882     14885
     14868     14867     14865     14888     14868     14867     14869     14870
     14868     14867     14869     14871     14868     14867     14869     14872
     14868     14867     14877     14875     14868     14867     14877     14878
     14868     14867     14877     14882     14869     14867     14865     14888
     14869     14867     14877     14875     14869     14867     14877     14878
     14869     14867     14877     14882     14869     14872     14875     14876
     14869     14872     14875     14877     14869     14872     14875     14901
     14870     14869     14867     14877     14870     14869     14872     14873
     14870     14869     14872     14874     14870     14869     14872     14875
     14871     14869     14867     14877     14871     14869     14872     14873
     14871     14869     14872     14874     14871     14869     14872     14875
     14872     14869     14867     14877     14872     14875     14877     14878
     14872     14875     14877     14882     14872     14875     14901     14902
     14872     14875     14901     14903     14872     14875     14901     14907
     14873     14872     14875     14876     14873     14872     14875     14877
     14873     14872     14875     14901     14874     14872     14875     14876
     14874     14872     14875     14877     14874     14872     14875     14901
     14875     14877     14878     14879     14875     14877     14878     14880
     14875     14877     14878     14881     14875     14877     14882     14883
     14875     14877     14882     14884     14875     14877     14882     14885
     14875     14901     14903     14904     14875     14901     14903     14905
     14875     14901     14903     14906     14875     14901     14907     14908
     14875     14901     14907     14909     14875     14901     14907     14910
     14876     14875     14877     14878     14876     14875     14877     14882
     14876     14875     14901     14902     14876     14875     14901     14903
     14876     14875     14901     14907     14877     14867     14865     14888
     14877     14875     14901     14902     14877     14875     14901     14903
     14877     14875     14901     14907     14877     14882     14885     14886
     14877     14882     14885     14887     14877     14882     14885     14888
     14878     14877     14875     14901     14878     14877     14882     14883
     14878     14877     14882     14884     14878     14877     14882     14885
     14879     14878     14877     14882     14880     14878     14877     14882
     14881     14878     14877     14882     14882     14877     14875     14901
     14882     14885     14888     14889     14882     14885     14888     14890
     14883     14882     14885     14886     14883     14882     14885     14887
     14883     14882     14885     14888     14884     14882     14885     14886
     14884     14882     14885     14887     14884     14882     14885     14888
     14885     14888     14890     14891     14885     14888     14890     14895
     14886     14885     14888     14889     14886     14885     14888     14890
     14887     14885     14888     14889     14887     14885     14888     14890
     14888     14890     14891     14892     14888     14890     14891     14893
     14888     14890     14891     14894     14888     14890     14895     14896
     14888     14890     14895     14897     14888     14890     14895     14898
     14889     14888     14890     14891     14889     14888     14890     14895
     14890     14895     14898     14899     14890     14895     14898     14900
     14891     14890     14895     14896     14891     14890     14895     14897
     14891     14890     14895     14898     14892     14891     14890     14895
     14893     14891     14890     14895     14894     14891     14890     14895
     14896     14895     14898     14899     14896     14895     14898     14900
     14897     14895     14898     14899     14897     14895     14898     14900
     14901     14907     14910     14911     14901     14907     14910     14912
     14901     14907     14910     14913     14902     14901     14903     14904
     14902     14901     14903     14905     14902     14901     14903     14906
     14902     14901     14907     14908     14902     14901     14907     14909
     14902     14901     14907     14910     14903     14901     14907     14908
     14903     14901     14907     14909     14903     14901     14907     14910
     14904     14903     14901     14907     14905     14903     14901     14907
     14906     14903     14901     14907     14907     14910     14913     14914
     14907     14910     14913     14915     14907     14910     14913     14916
     14908     14907     14910     14911     14908     14907     14910     14912
     14908     14907     14910     14913     14909     14907     14910     14911
     14909     14907     14910     14912     14909     14907     14910     14913
     14910     14913     14916     14917     14910     14913     14916     14918
     14910     14913     14916     14922     14911     14910     14913     14914
     14911     14910     14913     14915     14911     14910     14913     14916
     14912     14910     14913     14914     14912     14910     14913     14915
     14912     14910     14913     14916     14913     14916     14918     14919
     14913     14916     14918     14920     14913     14916     14918     14921
     14913     14916     14922     14923     14913     14916     14922     14924
     14913     14916     14922     14925     14914     14913     14916     14917
     14914     14913     14916     14918     14914     14913     14916     14922
     14915     14913     14916     14917     14915     14913     14916     14918
     14915     14913     14916     14922     14917     14916     14918     14919
     14917     14916     14918     14920     14917     14916     14918     14921
     14917     14916     14922     14923     14917     14916     14922     14924
     14917     14916     14922     14925     14918     14916     14922     14923
     14918     14916     14922     14924     14918     14916     14922     14925
     14919     14918     14916     14922     14920     14918     14916     14922
     14921     14918     14916     14922     14926     14930     14932     14933
     14926     14930     14932     14934     14926     14930     14935     14936
     14926     14930     14935     14937     14926     14930     14935     14941
     14927     14926     14930     14931     14927     14926     14930     14932
     14927     14926     14930     14935     14928     14926     14930     14931
     14928     14926     14930     14932     14928     14926     14930     14935
     14929     14926     14930     14931     14929     14926     14930     14932
     14929     14926     14930     14935     14930     14935     14941     14938
     14931     14930     14932     14933     14931     14930     14932     14934
     14931     14930     14935     14936     14931     14930     14935     14937
     14931     14930     14935     14941     14932     14930     14935     14936
     14932     14930     14935     14937     14932     14930     14935     14941
     14933     14932     14930     14935     14934     14932     14930     14935
     14935     14941     14938     14939     14935     14941     14938     14940
     14935     14941     14938     14942     14936     14935     14941     14938
     14937     14935     14941     14938     14938     14942     14943     14944
     14938     14942     14943     14945     14938     14942     14943     14946
     14939     14938     14942     14943     14940     14938     14942     14943
     14941     14938     14942     14943     14942     14943     14946     14947
     14942     14943     14946     14948     14942     14943     14946     14954
     14943     14946     14948     14949     14943     14946     14954     14955
     14943     14946     14954     14956     14943     14946     14954     14957
     14944     14943     14946     14947     14944     14943     14946     14948
     14944     14943     14946     14954     14945     14943     14946     14947
     14945     14943     14946     14948     14945     14943     14946     14954
     14946     14948     14949     14950     14946     14948     14949     14951
     14946     14954     14957     14958     14947     14946     14948     14949
     14947     14946     14954     14955     14947     14946     14954     14956
     14947     14946     14954     14957     14948     14946     14954     14955
     14948     14946     14954     14956     14948     14946     14954     14957
     14948     14949     14951     14952     14948     14949     14951     14953
     14948     14949     14951     14963     14949     14948     14946     14954
     14949     14951     14963     14964     14949     14951     14963     14965
     14949     14951     14963     14966     14950     14949     14951     14952
     14950     14949     14951     14953     14950     14949     14951     14963
     14951     14963     14966     14967     14951     14963     14966     14968
     14951     14963     14966     14969     14952     14951     14963     14964
     14952     14951     14963     14965     14952     14951     14963     14966
     14953     14951     14963     14964     14953     14951     14963     14965
     14953     14951     14963     14966     14954     14957     14958     14959
     14954     14957     14958     14960     14955     14954     14957     14958
     14956     14954     14957     14958     14957     14958     14960     14961
     14957     14958     14960     14962     14957     14958     14960     15010
     14958     14960     15010     15011     14958     14960     15010     15012
     14958     14960     15010     15013     14959     14958     14960     14961
     14959     14958     14960     14962     14959     14958     14960     15010
     14960     15010     15013     15014     14960     15010     15013     15015
     14960     15010     15013     15016     14961     14960     15010     15011
     14961     14960     15010     15012     14961     14960     15010     15013
     14962     14960     15010     15011     14962     14960     15010     15012
     14962     14960     15010     15013     14963     14966     14969     14970
     14963     14966     14969     14971     14964     14963     14966     14967
     14964     14963     14966     14968     14964     14963     14966     14969
     14965     14963     14966     14967     14965     14963     14966     14968
     14965     14963     14966     14969     14966     14969     14971     14972
     14966     14969     14971     14973     14967     14966     14969     14970
     14967     14966     14969     14971     14968     14966     14969     14970
     14968     14966     14969     14971     14969     14971     14973     14974
     14969     14971     14973     14975     14969     14971     14973     14976
     14970     14969     14971     14972     14970     14969     14971     14973
     14971     14973     14976     14977     14971     14973     14976     14978
     14972     14971     14973     14974     14972     14971     14973     14975
     14972     14971     14973     14976     14973     14976     14978     14979
     14973     14976     14978     14980     14974     14973     14976     14977
     14974     14973     14976     14978     14975     14973     14976     14977
     14975     14973     14976     14978     14976     14978     14980     14981
     14976     14978     14980     14982     14976     14978     14980     14983
     14977     14976     14978     14979     14977     14976     14978     14980
     14978     14980     14983     14984     14978     14980     14983     14985
     14979     14978     14980     14981     14979     14978     14980     14982
     14979     14978     14980     14983     14980     14983     14985     14986
     14980     14983     14985     14987     14981     14980     14983     14984
     14981     14980     14983     14985     14982     14980     14983     14984
     14982     14980     14983     14985     14983     14985     14987     14988
     14983     14985     14987     14989     14983     14985     14987     14990
     14984     14983     14985     14986     14984     14983     14985     14987
     14985     14987     14990     14991     14985     14987     14990     14992
     14986     14985     14987     14988     14986     14985     14987     14989
     14986     14985     14987     14990     14987     14990     14992     14993
     14987     14990     14992     14994     14988     14987     14990     14991
     14988     14987     14990     14992     14989     14987     14990     14991
     14989     14987     14990     14992     14990     14992     14994     14995
     14990     14992     14994     14996     14990     14992     14994     14997
     14991     14990     14992     14993     14991     14990     14992     14994
     14992     14994     14997     14998     14992     14994     14997     14999
     14992     14994     14997     15000     14993     14992     14994     14995
     14993     14992     14994     14996     14993     14992     14994     14997
     14994     14997     15000     15001     14994     14997     15000     15002
     14994     14997     15000     15003     14995     14994     14997     14998
     14995     14994     14997     14999     14995     14994     14997     15000
     14996     14994     14997     14998     14996     14994     14997     14999
     14996     14994     14997     15000     14997     15000     15003     15004
     14997     15000     15003     15005     14997     15000     15003     15006
     14998     14997     15000     15001     14998     14997     15000     15002
     14998     14997     15000     15003     14999     14997     15000     15001
     14999     14997     15000     15002     14999     14997     15000     15003
     15000     15003     15006     15007     15000     15003     15006     15008
     15000     15003     15006     15009     15001     15000     15003     15004
     15001     15000     15003     15005     15001     15000     15003     15006
     15002     15000     15003     15004     15002     15000     15003     15005
     15002     15000     15003     15006     15004     15003     15006     15007
     15004     15003     15006     15008     15004     15003     15006     15009
     15005     15003     15006     15007     15005     15003     15006     15008
     15005     15003     15006     15009     15010     15013     15016     15017
     15010     15013     15016     15018     15010     15013     15016     15019
     15011     15010     15013     15014     15011     15010     15013     15015
     15011     15010     15013     15016     15012     15010     15013     15014
     15012     15010     15013     15015     15012     15010     15013     15016
     15013     15016     15019     15020     15013     15016     15019     15021
     15013     15016     15019     15022     15014     15013     15016     15017
     15014     15013     15016     15018     15014     15013     15016     15019
     15015     15013     15016     15017     15015     15013     15016     15018
     15015     15013     15016     15019     15016     15019     15022     15023
     15016     15019     15022     15024     15016     15019     15022     15025
     15017     15016     15019     15020     15017     15016     15019     15021
     15017     15016     15019     15022     15018     15016     15019     15020
     15018     15016     15019     15021     15018     15016     15019     15022
     15019     15022     15025     15026     15019     15022     15025     15027
     15019     15022     15025     15028     15020     15019     15022     15023
     15020     15019     15022     15024     15020     15019     15022     15025
     15021     15019     15022     15023     15021     15019     15022     15024
     15021     15019     15022     15025     15022     15025     15028     15029
     15022     15025     15028     15030     15022     15025     15028     15031
     15023     15022     15025     15026     15023     15022     15025     15027
     15023     15022     15025     15028     15024     15022     15025     15026
     15024     15022     15025     15027     15024     15022     15025     15028
     15025     15028     15031     15032     15025     15028     15031     15033
     15025     15028     15031     15034     15026     15025     15028     15029
     15026     15025     15028     15030     15026     15025     15028     15031
     15027     15025     15028     15029     15027     15025     15028     15030
     15027     15025     15028     15031     15028     15031     15034     15035
     15028     15031     15034     15036     15028     15031     15034     15037
     15029     15028     15031     15032     15029     15028     15031     15033
     15029     15028     15031     15034     15030     15028     15031     15032
     15030     15028     15031     15033     15030     15028     15031     15034
     15031     15034     15037     15038     15031     15034     15037     15039
     15031     15034     15037     15040     15032     15031     15034     15035
     15032     15031     15034     15036     15032     15031     15034     15037
     15033     15031     15034     15035     15033     15031     15034     15036
     15033     15031     15034     15037     15034     15037     15040     15041
     15034     15037     15040     15042     15034     15037     15040     15043
     15035     15034     15037     15038     15035     15034     15037     15039
     15035     15034     15037     15040     15036     15034     15037     15038
     15036     15034     15037     15039     15036     15034     15037     15040
     15037     15040     15043     15044     15037     15040     15043     15045
     15037     15040     15043     15046     15038     15037     15040     15041
     15038     15037     15040     15042     15038     15037     15040     15043
     15039     15037     15040     15041     15039     15037     15040     15042
     15039     15037     15040     15043     15040     15043     15046     15047
     15040     15043     15046     15048     15040     15043     15046     15049
     15041     15040     15043     15044     15041     15040     15043     15045
     15041     15040     15043     15046     15042     15040     15043     15044
     15042     15040     15043     15045     15042     15040     15043     15046
     15043     15046     15049     15050     15043     15046     15049     15051
     15043     15046     15049     15052     15044     15043     15046     15047
     15044     15043     15046     15048     15044     15043     15046     15049
     15045     15043     15046     15047     15045     15043     15046     15048
     15045     15043     15046     15049     15046     15049     15052     15053
     15046     15049     15052     15054     15046     15049     15052     15055
     15047     15046     15049     15050     15047     15046     15049     15051
     15047     15046     15049     15052     15048     15046     15049     15050
     15048     15046     15049     15051     15048     15046     15049     15052
     15049     15052     15055     15056     15049     15052     15055     15057
     15049     15052     15055     15058     15050     15049     15052     15053
     15050     15049     15052     15054     15050     15049     15052     15055
     15051     15049     15052     15053     15051     15049     15052     15054
     15051     15049     15052     15055     15053     15052     15055     15056
     15053     15052     15055     15057     15053     15052     15055     15058
     15054     15052     15055     15056     15054     15052     15055     15057
     15054     15052     15055     15058     15059     15072     15075     15076
     15059     15072     15075     15077     15059     15072     15075     15082
     15060     15059     15064     15065     15060     15059     15064     15066
     15060     15059     15064     15067     15060     15059     15068     15069
     15060     15059     15068     15070     15060     15059     15068     15071
     15060     15059     15072     15073     15060     15059     15072     15074
     15060     15059     15072     15075     15061     15060     15059     15064
     15061     15060     15059     15068     15061     15060     15059     15072
     15062     15060     15059     15064     15062     15060     15059     15068
     15062     15060     15059     15072     15063     15060     15059     15064
     15063     15060     15059     15068     15063     15060     15059     15072
     15064     15059     15068     15069     15064     15059     15068     15070
     15064     15059     15068     15071     15064     15059     15072     15073
     15064     15059     15072     15074     15064     15059     15072     15075
     15065     15064     15059     15068     15065     15064     15059     15072
     15066     15064     15059     15068     15066     15064     15059     15072
     15067     15064     15059     15068     15067     15064     15059     15072
     15068     15059     15072     15073     15068     15059     15072     15074
     15068     15059     15072     15075     15069     15068     15059     15072
     15070     15068     15059     15072     15071     15068     15059     15072
     15072     15075     15082     15078     15073     15072     15075     15076
     15073     15072     15075     15077     15073     15072     15075     15082
     15074     15072     15075     15076     15074     15072     15075     15077
     15074     15072     15075     15082     15075     15082     15078     15079
     15075     15082     15078     15080     15075     15082     15078     15081
     15076     15075     15082     15078     15077     15075     15082     15078
     15078     15081     15083     15084     15078     15081     15083     15085
     15078     15081     15083     15088     15079     15078     15081     15083
     15080     15078     15081     15083     15081     15083     15088     15086
     15081     15083     15088     15089     15081     15083     15088     15090
     15082     15078     15081     15083     15083     15088     15086     15087
     15083     15088     15086     15138     15083     15088     15090     15091
     15083     15088     15090     15092     15083     15088     15090     15094
     15084     15083     15088     15086     15084     15083     15088     15089
     15084     15083     15088     15090     15085     15083     15088     15086
     15085     15083     15088     15089     15085     15083     15088     15090
     15086     15088     15090     15091     15086     15088     15090     15092
     15086     15088     15090     15094     15086     15138     15140     15141
     15086     15138     15140     15142     15086     15138     15140     15143
     15087     15086     15088     15089     15087     15086     15088     15090
     15087     15086     15138     15139     15087     15086     15138     15140
     15088     15086     15138     15139     15088     15086     15138     15140
     15088     15090     15092     15093     15088     15090     15094     15095
     15088     15090     15094     15096     15089     15088     15086     15138
     15089     15088     15090     15091     15089     15088     15090     15092
     15089     15088     15090     15094     15090     15088     15086     15138
     15090     15094     15096     15097     15090     15094     15096     15098
     15091     15090     15092     15093     15091     15090     15094     15095
     15091     15090     15094     15096     15092     15090     15094     15095
     15092     15090     15094     15096     15093     15092     15090     15094
     15094     15096     15098     15099     15094     15096     15098     15100
     15094     15096     15098     15101     15095     15094     15096     15097
     15095     15094     15096     15098     15096     15098     15101     15102
     15096     15098     15101     15103     15096     15098     15101     15104
     15097     15096     15098     15099     15097     15096     15098     15100
     15097     15096     15098     15101     15098     15101     15104     15105
     15098     15101     15104     15106     15098     15101     15104     15107
     15099     15098     15101     15102     15099     15098     15101     15103
     15099     15098     15101     15104     15100     15098     15101     15102
     15100     15098     15101     15103     15100     15098     15101     15104
     15101     15104     15107     15108     15101     15104     15107     15109
     15101     15104     15107     15110     15102     15101     15104     15105
     15102     15101     15104     15106     15102     15101     15104     15107
     15103     15101     15104     15105     15103     15101     15104     15106
     15103     15101     15104     15107     15104     15107     15110     15111
     15104     15107     15110     15112     15104     15107     15110     15113
     15105     15104     15107     15108     15105     15104     15107     15109
     15105     15104     15107     15110     15106     15104     15107     15108
     15106     15104     15107     15109     15106     15104     15107     15110
     15107     15110     15113     15114     15107     15110     15113     15115
     15107     15110     15113     15116     15108     15107     15110     15111
     15108     15107     15110     15112     15108     15107     15110     15113
     15109     15107     15110     15111     15109     15107     15110     15112
     15109     15107     15110     15113     15110     15113     15116     15117
     15110     15113     15116     15118     15110     15113     15116     15119
     15111     15110     15113     15114     15111     15110     15113     15115
     15111     15110     15113     15116     15112     15110     15113     15114
     15112     15110     15113     15115     15112     15110     15113     15116
     15113     15116     15119     15120     15113     15116     15119     15121
     15113     15116     15119     15122     15114     15113     15116     15117
     15114     15113     15116     15118     15114     15113     15116     15119
     15115     15113     15116     15117     15115     15113     15116     15118
     15115     15113     15116     15119     15116     15119     15122     15123
     15116     15119     15122     15124     15116     15119     15122     15125
     15117     15116     15119     15120     15117     15116     15119     15121
     15117     15116     15119     15122     15118     15116     15119     15120
     15118     15116     15119     15121     15118     15116     15119     15122
     15119     15122     15125     15126     15119     15122     15125     15127
     15119     15122     15125     15128     15120     15119     15122     15123
     15120     15119     15122     15124     15120     15119     15122     15125
     15121     15119     15122     15123     15121     15119     15122     15124
     15121     15119     15122     15125     15122     15125     15128     15129
     15122     15125     15128     15130     15122     15125     15128     15131
     15123     15122     15125     15126     15123     15122     15125     15127
     15123     15122     15125     15128     15124     15122     15125     15126
     15124     15122     15125     15127     15124     15122     15125     15128
     15125     15128     15131     15132     15125     15128     15131     15133
     15125     15128     15131     15134     15126     15125     15128     15129
     15126     15125     15128     15130     15126     15125     15128     15131
     15127     15125     15128     15129     15127     15125     15128     15130
     15127     15125     15128     15131     15128     15131     15134     15135
     15128     15131     15134     15136     15128     15131     15134     15137
     15129     15128     15131     15132     15129     15128     15131     15133
     15129     15128     15131     15134     15130     15128     15131     15132
     15130     15128     15131     15133     15130     15128     15131     15134
     15132     15131     15134     15135     15132     15131     15134     15136
     15132     15131     15134     15137     15133     15131     15134     15135
     15133     15131     15134     15136     15133     15131     15134     15137
     15138     15140     15143     15144     15138     15140     15143     15145
     15138     15140     15143     15146     15139     15138     15140     15141
     15139     15138     15140     15142     15139     15138     15140     15143
     15140     15143     15146     15147     15140     15143     15146     15148
     15140     15143     15146     15149     15141     15140     15143     15144
     15141     15140     15143     15145     15141     15140     15143     15146
     15142     15140     15143     15144     15142     15140     15143     15145
     15142     15140     15143     15146     15143     15146     15149     15150
     15143     15146     15149     15151     15143     15146     15149     15152
     15144     15143     15146     15147     15144     15143     15146     15148
     15144     15143     15146     15149     15145     15143     15146     15147
     15145     15143     15146     15148     15145     15143     15146     15149
     15146     15149     15152     15153     15146     15149     15152     15154
     15146     15149     15152     15155     15147     15146     15149     15150
     15147     15146     15149     15151     15147     15146     15149     15152
     15148     15146     15149     15150     15148     15146     15149     15151
     15148     15146     15149     15152     15149     15152     15155     15156
     15149     15152     15155     15157     15149     15152     15155     15158
     15150     15149     15152     15153     15150     15149     15152     15154
     15150     15149     15152     15155     15151     15149     15152     15153
     15151     15149     15152     15154     15151     15149     15152     15155
     15152     15155     15158     15159     15152     15155     15158     15160
     15152     15155     15158     15161     15153     15152     15155     15156
     15153     15152     15155     15157     15153     15152     15155     15158
     15154     15152     15155     15156     15154     15152     15155     15157
     15154     15152     15155     15158     15155     15158     15161     15162
     15155     15158     15161     15163     15156     15155     15158     15159
     15156     15155     15158     15160     15156     15155     15158     15161
     15157     15155     15158     15159     15157     15155     15158     15160
     15157     15155     15158     15161     15158     15161     15163     15164
     15158     15161     15163     15165     15159     15158     15161     15162
     15159     15158     15161     15163     15160     15158     15161     15162
     15160     15158     15161     15163     15161     15163     15165     15166
     15161     15163     15165     15167     15161     15163     15165     15168
     15162     15161     15163     15164     15162     15161     15163     15165
     15163     15165     15168     15169     15163     15165     15168     15170
     15163     15165     15168     15171     15164     15163     15165     15166
     15164     15163     15165     15167     15164     15163     15165     15168
     15165     15168     15171     15172     15165     15168     15171     15173
     15165     15168     15171     15174     15166     15165     15168     15169
     15166     15165     15168     15170     15166     15165     15168     15171
     15167     15165     15168     15169     15167     15165     15168     15170
     15167     15165     15168     15171     15168     15171     15174     15175
     15168     15171     15174     15176     15168     15171     15174     15177
     15169     15168     15171     15172     15169     15168     15171     15173
     15169     15168     15171     15174     15170     15168     15171     15172
     15170     15168     15171     15173     15170     15168     15171     15174
     15171     15174     15177     15178     15171     15174     15177     15179
     15171     15174     15177     15180     15172     15171     15174     15175
     15172     15171     15174     15176     15172     15171     15174     15177
     15173     15171     15174     15175     15173     15171     15174     15176
     15173     15171     15174     15177     15174     15177     15180     15181
     15174     15177     15180     15182     15174     15177     15180     15183
     15175     15174     15177     15178     15175     15174     15177     15179
     15175     15174     15177     15180     15176     15174     15177     15178
     15176     15174     15177     15179     15176     15174     15177     15180
     15177     15180     15183     15184     15177     15180     15183     15185
     15177     15180     15183     15186     15178     15177     15180     15181
     15178     15177     15180     15182     15178     15177     15180     15183
     15179     15177     15180     15181     15179     15177     15180     15182
     15179     15177     15180     15183     15180     15183     15186     15187
     15180     15183     15186     15188     15180     15183     15186     15189
     15181     15180     15183     15184     15181     15180     15183     15185
     15181     15180     15183     15186     15182     15180     15183     15184
     15182     15180     15183     15185     15182     15180     15183     15186
     15184     15183     15186     15187     15184     15183     15186     15188
     15184     15183     15186     15189     15185     15183     15186     15187
     15185     15183     15186     15188     15185     15183     15186     15189
     15190     15194     15197     15198     15190     15194     15197     15199
     15190     15194     15197     15203     15191     15190     15194     15195
     15191     15190     15194     15196     15191     15190     15194     15197
     15192     15190     15194     15195     15192     15190     15194     15196
     15192     15190     15194     15197     15193     15190     15194     15195
     15193     15190     15194     15196     15193     15190     15194     15197
     15194     15197     15203     15200     15195     15194     15197     15198
     15195     15194     15197     15199     15195     15194     15197     15203
     15196     15194     15197     15198     15196     15194     15197     15199
     15196     15194     15197     15203     15197     15203     15200     15201
     15197     15203     15200     15202     15197     15203     15200     15204
     15198     15197     15203     15200     15199     15197     15203     15200
     15200     15204     15205     15206     15200     15204     15205     15207
     15200     15204     15205     15208     15201     15200     15204     15205
     15202     15200     15204     15205     15203     15200     15204     15205
     15204     15205     15208     15209     15204     15205     15208     15210
     15204     15205     15208     15216     15205     15208     15210     15211
     15205     15208     15216     15217     15205     15208     15216     15218
     15205     15208     15216     15219     15206     15205     15208     15209
     15206     15205     15208     15210     15206     15205     15208     15216
     15207     15205     15208     15209     15207     15205     15208     15210
     15207     15205     15208     15216     15208     15210     15211     15212
     15208     15210     15211     15213     15208     15216     15219     15220
     15209     15208     15210     15211     15209     15208     15216     15217
     15209     15208     15216     15218     15209     15208     15216     15219
     15210     15208     15216     15217     15210     15208     15216     15218
     15210     15208     15216     15219     15210     15211     15213     15214
     15210     15211     15213     15215     15210     15211     15213     15225
     15211     15210     15208     15216     15211     15213     15225     15226
     15211     15213     15225     15227     15211     15213     15225     15228
     15212     15211     15213     15214     15212     15211     15213     15215
     15212     15211     15213     15225     15213     15225     15228     15229
     15213     15225     15228     15230     15213     15225     15228     15231
     15214     15213     15225     15226     15214     15213     15225     15227
     15214     15213     15225     15228     15215     15213     15225     15226
     15215     15213     15225     15227     15215     15213     15225     15228
     15216     15219     15220     15221     15216     15219     15220     15222
     15217     15216     15219     15220     15218     15216     15219     15220
     15219     15220     15222     15223     15219     15220     15222     15224
     15219     15220     15222     15272     15220     15222     15272     15273
     15220     15222     15272     15274     15220     15222     15272     15275
     15221     15220     15222     15223     15221     15220     15222     15224
     15221     15220     15222     15272     15222     15272     15275     15276
     15222     15272     15275     15277     15222     15272     15275     15278
     15223     15222     15272     15273     15223     15222     15272     15274
     15223     15222     15272     15275     15224     15222     15272     15273
     15224     15222     15272     15274     15224     15222     15272     15275
     15225     15228     15231     15232     15225     15228     15231     15233
     15226     15225     15228     15229     15226     15225     15228     15230
     15226     15225     15228     15231     15227     15225     15228     15229
     15227     15225     15228     15230     15227     15225     15228     15231
     15228     15231     15233     15234     15228     15231     15233     15235
     15229     15228     15231     15232     15229     15228     15231     15233
     15230     15228     15231     15232     15230     15228     15231     15233
     15231     15233     15235     15236     15231     15233     15235     15237
     15231     15233     15235     15238     15232     15231     15233     15234
     15232     15231     15233     15235     15233     15235     15238     15239
     15233     15235     15238     15240     15234     15233     15235     15236
     15234     15233     15235     15237     15234     15233     15235     15238
     15235     15238     15240     15241     15235     15238     15240     15242
     15236     15235     15238     15239     15236     15235     15238     15240
     15237     15235     15238     15239     15237     15235     15238     15240
     15238     15240     15242     15243     15238     15240     15242     15244
     15238     15240     15242     15245     15239     15238     15240     15241
     15239     15238     15240     15242     15240     15242     15245     15246
     15240     15242     15245     15247     15241     15240     15242     15243
     15241     15240     15242     15244     15241     15240     15242     15245
     15242     15245     15247     15248     15242     15245     15247     15249
     15243     15242     15245     15246     15243     15242     15245     15247
     15244     15242     15245     15246     15244     15242     15245     15247
     15245     15247     15249     15250     15245     15247     15249     15251
     15245     15247     15249     15252     15246     15245     15247     15248
     15246     15245     15247     15249     15247     15249     15252     15253
     15247     15249     15252     15254     15248     15247     15249     15250
     15248     15247     15249     15251     15248     15247     15249     15252
     15249     15252     15254     15255     15249     15252     15254     15256
     15250     15249     15252     15253     15250     15249     15252     15254
     15251     15249     15252     15253     15251     15249     15252     15254
     15252     15254     15256     15257     15252     15254     15256     15258
     15252     15254     15256     15259     15253     15252     15254     15255
     15253     15252     15254     15256     15254     15256     15259     15260
     15254     15256     15259     15261     15254     15256     15259     15262
     15255     15254     15256     15257     15255     15254     15256     15258
     15255     15254     15256     15259     15256     15259     15262     15263
     15256     15259     15262     15264     15256     15259     15262     15265
     15257     15256     15259     15260     15257     15256     15259     15261
     15257     15256     15259     15262     15258     15256     15259     15260
     15258     15256     15259     15261     15258     15256     15259     15262
     15259     15262     15265     15266     15259     15262     15265     15267
     15259     15262     15265     15268     15260     15259     15262     15263
     15260     15259     15262     15264     15260     15259     15262     15265
     15261     15259     15262     15263     15261     15259     15262     15264
     15261     15259     15262     15265     15262     15265     15268     15269
     15262     15265     15268     15270     15262     15265     15268     15271
     15263     15262     15265     15266     15263     15262     15265     15267
     15263     15262     15265     15268     15264     15262     15265     15266
     15264     15262     15265     15267     15264     15262     15265     15268
     15266     15265     15268     15269     15266     15265     15268     15270
     15266     15265     15268     15271     15267     15265     15268     15269
     15267     15265     15268     15270     15267     15265     15268     15271
     15272     15275     15278     15279     15272     15275     15278     15280
     15272     15275     15278     15281     15273     15272     15275     15276
     15273     15272     15275     15277     15273     15272     15275     15278
     15274     15272     15275     15276     15274     15272     15275     15277
     15274     15272     15275     15278     15275     15278     15281     15282
     15275     15278     15281     15283     15275     15278     15281     15284
     15276     15275     15278     15279     15276     15275     15278     15280
     15276     15275     15278     15281     15277     15275     15278     15279
     15277     15275     15278     15280     15277     15275     15278     15281
     15278     15281     15284     15285     15278     15281     15284     15286
     15278     15281     15284     15287     15279     15278     15281     15282
     15279     15278     15281     15283     15279     15278     15281     15284
     15280     15278     15281     15282     15280     15278     15281     15283
     15280     15278     15281     15284     15281     15284     15287     15288
     15281     15284     15287     15289     15281     15284     15287     15290
     15282     15281     15284     15285     15282     15281     15284     15286
     15282     15281     15284     15287     15283     15281     15284     15285
     15283     15281     15284     15286     15283     15281     15284     15287
     15284     15287     15290     15291     15284     15287     15290     15292
     15284     15287     15290     15293     15285     15284     15287     15288
     15285     15284     15287     15289     15285     15284     15287     15290
     15286     15284     15287     15288     15286     15284     15287     15289
     15286     15284     15287     15290     15287     15290     15293     15294
     15287     15290     15293     15295     15287     15290     15293     15296
     15288     15287     15290     15291     15288     15287     15290     15292
     15288     15287     15290     15293     15289     15287     15290     15291
     15289     15287     15290     15292     15289     15287     15290     15293
     15290     15293     15296     15297     15290     15293     15296     15298
     15290     15293     15296     15299     15291     15290     15293     15294
     15291     15290     15293     15295     15291     15290     15293     15296
     15292     15290     15293     15294     15292     15290     15293     15295
     15292     15290     15293     15296     15293     15296     15299     15300
     15293     15296     15299     15301     15293     15296     15299     15302
     15294     15293     15296     15297     15294     15293     15296     15298
     15294     15293     15296     15299     15295     15293     15296     15297
     15295     15293     15296     15298     15295     15293     15296     15299
     15296     15299     15302     15303     15296     15299     15302     15304
     15296     15299     15302     15305     15297     15296     15299     15300
     15297     15296     15299     15301     15297     15296     15299     15302
     15298     15296     15299     15300     15298     15296     15299     15301
     15298     15296     15299     15302     15299     15302     15305     15306
     15299     15302     15305     15307     15299     15302     15305     15308
     15300     15299     15302     15303     15300     15299     15302     15304
     15300     15299     15302     15305     15301     15299     15302     15303
     15301     15299     15302     15304     15301     15299     15302     15305
     15302     15305     15308     15309     15302     15305     15308     15310
     15302     15305     15308     15311     15303     15302     15305     15306
     15303     15302     15305     15307     15303     15302     15305     15308
     15304     15302     15305     15306     15304     15302     15305     15307
     15304     15302     15305     15308     15305     15308     15311     15312
     15305     15308     15311     15313     15305     15308     15311     15314
     15306     15305     15308     15309     15306     15305     15308     15310
     15306     15305     15308     15311     15307     15305     15308     15309
     15307     15305     15308     15310     15307     15305     15308     15311
     15308     15311     15314     15315     15308     15311     15314     15316
     15308     15311     15314     15317     15309     15308     15311     15312
     15309     15308     15311     15313     15309     15308     15311     15314
     15310     15308     15311     15312     15310     15308     15311     15313
     15310     15308     15311     15314     15311     15314     15317     15318
     15311     15314     15317     15319     15311     15314     15317     15320
     15312     15311     15314     15315     15312     15311     15314     15316
     15312     15311     15314     15317     15313     15311     15314     15315
     15313     15311     15314     15316     15313     15311     15314     15317
     15315     15314     15317     15318     15315     15314     15317     15319
     15315     15314     15317     15320     15316     15314     15317     15318
     15316     15314     15317     15319     15316     15314     15317     15320
     15321     15325     15328     15329     15321     15325     15328     15359
     15321     15367     15364     15359     15321     15367     15364     15365
     15321     15367     15364     15366     15322     15321     15323     15324
     15322     15321     15325     15326     15322     15321     15325     15327
     15322     15321     15325     15328     15322     15321     15367     15364
     15322     15321     15367     15368     15322     15321     15367     15369
     15323     15321     15325     15326     15323     15321     15325     15327
     15323     15321     15325     15328     15323     15321     15367     15364
     15323     15321     15367     15368     15323     15321     15367     15369
     15324     15323     15321     15325     15324     15323     15321     15367
     15325     15321     15367     15364     15325     15321     15367     15368
     15325     15321     15367     15369     15325     15328     15329     15330
     15325     15328     15329     15331     15325     15328     15359     15357
     15325     15328     15359     15360     15325     15328     15359     15364
     15326     15325     15321     15367     15326     15325     15328     15329
     15326     15325     15328     15359     15327     15325     15321     15367
     15327     15325     15328     15329     15327     15325     15328     15359
     15328     15325     15321     15367     15328     15329     15331     15332
     15328     15329     15331     15333     15328     15329     15331     15334
     15328     15359     15357     15334     15328     15359     15357     15354
     15328     15359     15357     15358     15328     15359     15360     15361
     15328     15359     15360     15362     15328     15359     15360     15363
     15328     15359     15364     15365     15328     15359     15364     15366
     15328     15359     15364     15367     15329     15328     15359     15357
     15329     15328     15359     15360     15329     15328     15359     15364
     15329     15331     15334     15335     15329     15331     15334     15336
     15329     15331     15334     15357     15330     15329     15328     15359
     15330     15329     15331     15332     15330     15329     15331     15333
     15330     15329     15331     15334     15331     15329     15328     15359
     15331     15334     15336     15337     15331     15334     15336     15338
     15331     15334     15336     15346     15331     15334     15357     15354
     15331     15334     15357     15358     15331     15334     15357     15359
     15332     15331     15334     15335     15332     15331     15334     15336
     15332     15331     15334     15357     15333     15331     15334     15335
     15333     15331     15334     15336     15333     15331     15334     15357
     15334     15336     15338     15339     15334     15336     15338     15340
     15334     15336     15338     15341     15334     15336     15346     15344
     15334     15336     15346     15347     15334     15336     15346     15351
     15334     15357     15354     15351     15334     15357     15354     15355
     15334     15357     15354     15356     15334     15357     15359     15360
     15334     15357     15359     15364     15335     15334     15336     15337
     15335     15334     15336     15338     15335     15334     15336     15346
     15335     15334     15357     15354     15335     15334     15357     15358
     15335     15334     15357     15359     15336     15334     15357     15354
     15336     15334     15357     15358     15336     15334     15357     15359
     15336     15338     15341     15342     15336     15338     15341     15343
     15336     15338     15341     15344     15336     15346     15344     15341
     15336     15346     15344     15345     15336     15346     15344     15370
     15336     15346     15347     15348     15336     15346     15347     15349
     15336     15346     15347     15350     15336     15346     15351     15352
     15336     15346     15351     15353     15336     15346     15351     15354
     15337     15336     15334     15357     15337     15336     15338     15339
     15337     15336     15338     15340     15337     15336     15338     15341
     15337     15336     15346     15344     15337     15336     15346     15347
     15337     15336     15346     15351     15338     15336     15334     15357
     15338     15336     15346     15344     15338     15336     15346     15347
     15338     15336     15346     15351     15338     15341     15344     15345
     15338     15341     15344     15346     15338     15341     15344     15370
     15339     15338     15336     15346     15339     15338     15341     15342
     15339     15338     15341     15343     15339     15338     15341     15344
     15340     15338     15336     15346     15340     15338     15341     15342
     15340     15338     15341     15343     15340     15338     15341     15344
     15341     15338     15336     15346     15341     15344     15346     15347
     15341     15344     15346     15351     15341     15344     15370     15371
     15341     15344     15370     15372     15341     15344     15370     15376
     15342     15341     15344     15345     15342     15341     15344     15346
     15342     15341     15344     15370     15343     15341     15344     15345
     15343     15341     15344     15346     15343     15341     15344     15370
     15344     15346     15347     15348     15344     15346     15347     15349
     15344     15346     15347     15350     15344     15346     15351     15352
     15344     15346     15351     15353     15344     15346     15351     15354
     15344     15370     15372     15373     15344     15370     15372     15374
     15344     15370     15372     15375     15344     15370     15376     15377
     15344     15370     15376     15378     15344     15370     15376     15379
     15345     15344     15346     15347     15345     15344     15346     15351
     15345     15344     15370     15371     15345     15344     15370     15372
     15345     15344     15370     15376     15346     15336     15334     15357
     15346     15344     15370     15371     15346     15344     15370     15372
     15346     15344     15370     15376     15346     15351     15354     15355
     15346     15351     15354     15356     15346     15351     15354     15357
     15347     15346     15344     15370     15347     15346     15351     15352
     15347     15346     15351     15353     15347     15346     15351     15354
     15348     15347     15346     15351     15349     15347     15346     15351
     15350     15347     15346     15351     15351     15346     15344     15370
     15351     15354     15357     15358     15351     15354     15357     15359
     15352     15351     15354     15355     15352     15351     15354     15356
     15352     15351     15354     15357     15353     15351     15354     15355
     15353     15351     15354     15356     15353     15351     15354     15357
     15354     15357     15359     15360     15354     15357     15359     15364
     15355     15354     15357     15358     15355     15354     15357     15359
     15356     15354     15357     15358     15356     15354     15357     15359
     15357     15359     15360     15361     15357     15359     15360     15362
     15357     15359     15360     15363     15357     15359     15364     15365
     15357     15359     15364     15366     15357     15359     15364     15367
     15358     15357     15359     15360     15358     15357     15359     15364
     15359     15364     15367     15368     15359     15364     15367     15369
     15360     15359     15364     15365     15360     15359     15364     15366
     15360     15359     15364     15367     15361     15360     15359     15364
     15362     15360     15359     15364     15363     15360     15359     15364
     15365     15364     15367     15368     15365     15364     15367     15369
     15366     15364     15367     15368     15366     15364     15367     15369
     15370     15376     15379     15380     15370     15376     15379     15381
     15370     15376     15379     15382     15371     15370     15372     15373
     15371     15370     15372     15374     15371     15370     15372     15375
     15371     15370     15376     15377     15371     15370     15376     15378
     15371     15370     15376     15379     15372     15370     15376     15377
     15372     15370     15376     15378     15372     15370     15376     15379
     15373     15372     15370     15376     15374     15372     15370     15376
     15375     15372     15370     15376     15376     15379     15382     15383
     15376     15379     15382     15384     15376     15379     15382     15385
     15377     15376     15379     15380     15377     15376     15379     15381
     15377     15376     15379     15382     15378     15376     15379     15380
     15378     15376     15379     15381     15378     15376     15379     15382
     15379     15382     15385     15386     15379     15382     15385     15387
     15379     15382     15385     15391     15380     15379     15382     15383
     15380     15379     15382     15384     15380     15379     15382     15385
     15381     15379     15382     15383     15381     15379     15382     15384
     15381     15379     15382     15385     15382     15385     15387     15388
     15382     15385     15387     15389     15382     15385     15387     15390
     15382     15385     15391     15392     15382     15385     15391     15393
     15382     15385     15391     15394     15383     15382     15385     15386
     15383     15382     15385     15387     15383     15382     15385     15391
     15384     15382     15385     15386     15384     15382     15385     15387
     15384     15382     15385     15391     15386     15385     15387     15388
     15386     15385     15387     15389     15386     15385     15387     15390
     15386     15385     15391     15392     15386     15385     15391     15393
     15386     15385     15391     15394     15387     15385     15391     15392
     15387     15385     15391     15393     15387     15385     15391     15394
     15388     15387     15385     15391     15389     15387     15385     15391
     15390     15387     15385     15391     15395     15408     15411     15412
     15395     15408     15411     15413     15395     15408     15411     15418
     15396     15395     15400     15401     15396     15395     15400     15402
     15396     15395     15400     15403     15396     15395     15404     15405
     15396     15395     15404     15406     15396     15395     15404     15407
     15396     15395     15408     15409     15396     15395     15408     15410
     15396     15395     15408     15411     15397     15396     15395     15400
     15397     15396     15395     15404     15397     15396     15395     15408
     15398     15396     15395     15400     15398     15396     15395     15404
     15398     15396     15395     15408     15399     15396     15395     15400
     15399     15396     15395     15404     15399     15396     15395     15408
     15400     15395     15404     15405     15400     15395     15404     15406
     15400     15395     15404     15407     15400     15395     15408     15409
     15400     15395     15408     15410     15400     15395     15408     15411
     15401     15400     15395     15404     15401     15400     15395     15408
     15402     15400     15395     15404     15402     15400     15395     15408
     15403     15400     15395     15404     15403     15400     15395     15408
     15404     15395     15408     15409     15404     15395     15408     15410
     15404     15395     15408     15411     15405     15404     15395     15408
     15406     15404     15395     15408     15407     15404     15395     15408
     15408     15411     15418     15414     15409     15408     15411     15412
     15409     15408     15411     15413     15409     15408     15411     15418
     15410     15408     15411     15412     15410     15408     15411     15413
     15410     15408     15411     15418     15411     15418     15414     15415
     15411     15418     15414     15416     15411     15418     15414     15417
     15412     15411     15418     15414     15413     15411     15418     15414
     15414     15417     15419     15420     15414     15417     15419     15421
     15414     15417     15419     15424     15415     15414     15417     15419
     15416     15414     15417     15419     15417     15419     15424     15422
     15417     15419     15424     15425     15417     15419     15424     15426
     15418     15414     15417     15419     15419     15424     15422     15423
     15419     15424     15422     15474     15419     15424     15426     15427
     15419     15424     15426     15428     15419     15424     15426     15430
     15420     15419     15424     15422     15420     15419     15424     15425
     15420     15419     15424     15426     15421     15419     15424     15422
     15421     15419     15424     15425     15421     15419     15424     15426
     15422     15424     15426     15427     15422     15424     15426     15428
     15422     15424     15426     15430     15422     15474     15476     15477
     15422     15474     15476     15478     15422     15474     15476     15479
     15423     15422     15424     15425     15423     15422     15424     15426
     15423     15422     15474     15475     15423     15422     15474     15476
     15424     15422     15474     15475     15424     15422     15474     15476
     15424     15426     15428     15429     15424     15426     15430     15431
     15424     15426     15430     15432     15425     15424     15422     15474
     15425     15424     15426     15427     15425     15424     15426     15428
     15425     15424     15426     15430     15426     15424     15422     15474
     15426     15430     15432     15433     15426     15430     15432     15434
     15427     15426     15428     15429     15427     15426     15430     15431
     15427     15426     15430     15432     15428     15426     15430     15431
     15428     15426     15430     15432     15429     15428     15426     15430
     15430     15432     15434     15435     15430     15432     15434     15436
     15430     15432     15434     15437     15431     15430     15432     15433
     15431     15430     15432     15434     15432     15434     15437     15438
     15432     15434     15437     15439     15432     15434     15437     15440
     15433     15432     15434     15435     15433     15432     15434     15436
     15433     15432     15434     15437     15434     15437     15440     15441
     15434     15437     15440     15442     15434     15437     15440     15443
     15435     15434     15437     15438     15435     15434     15437     15439
     15435     15434     15437     15440     15436     15434     15437     15438
     15436     15434     15437     15439     15436     15434     15437     15440
     15437     15440     15443     15444     15437     15440     15443     15445
     15437     15440     15443     15446     15438     15437     15440     15441
     15438     15437     15440     15442     15438     15437     15440     15443
     15439     15437     15440     15441     15439     15437     15440     15442
     15439     15437     15440     15443     15440     15443     15446     15447
     15440     15443     15446     15448     15440     15443     15446     15449
     15441     15440     15443     15444     15441     15440     15443     15445
     15441     15440     15443     15446     15442     15440     15443     15444
     15442     15440     15443     15445     15442     15440     15443     15446
     15443     15446     15449     15450     15443     15446     15449     15451
     15443     15446     15449     15452     15444     15443     15446     15447
     15444     15443     15446     15448     15444     15443     15446     15449
     15445     15443     15446     15447     15445     15443     15446     15448
     15445     15443     15446     15449     15446     15449     15452     15453
     15446     15449     15452     15454     15446     15449     15452     15455
     15447     15446     15449     15450     15447     15446     15449     15451
     15447     15446     15449     15452     15448     15446     15449     15450
     15448     15446     15449     15451     15448     15446     15449     15452
     15449     15452     15455     15456     15449     15452     15455     15457
     15449     15452     15455     15458     15450     15449     15452     15453
     15450     15449     15452     15454     15450     15449     15452     15455
     15451     15449     15452     15453     15451     15449     15452     15454
     15451     15449     15452     15455     15452     15455     15458     15459
     15452     15455     15458     15460     15452     15455     15458     15461
     15453     15452     15455     15456     15453     15452     15455     15457
     15453     15452     15455     15458     15454     15452     15455     15456
     15454     15452     15455     15457     15454     15452     15455     15458
     15455     15458     15461     15462     15455     15458     15461     15463
     15455     15458     15461     15464     15456     15455     15458     15459
     15456     15455     15458     15460     15456     15455     15458     15461
     15457     15455     15458     15459     15457     15455     15458     15460
     15457     15455     15458     15461     15458     15461     15464     15465
     15458     15461     15464     15466     15458     15461     15464     15467
     15459     15458     15461     15462     15459     15458     15461     15463
     15459     15458     15461     15464     15460     15458     15461     15462
     15460     15458     15461     15463     15460     15458     15461     15464
     15461     15464     15467     15468     15461     15464     15467     15469
     15461     15464     15467     15470     15462     15461     15464     15465
     15462     15461     15464     15466     15462     15461     15464     15467
     15463     15461     15464     15465     15463     15461     15464     15466
     15463     15461     15464     15467     15464     15467     15470     15471
     15464     15467     15470     15472     15464     15467     15470     15473
     15465     15464     15467     15468     15465     15464     15467     15469
     15465     15464     15467     15470     15466     15464     15467     15468
     15466     15464     15467     15469     15466     15464     15467     15470
     15468     15467     15470     15471     15468     15467     15470     15472
     15468     15467     15470     15473     15469     15467     15470     15471
     15469     15467     15470     15472     15469     15467     15470     15473
     15474     15476     15479     15480     15474     15476     15479     15481
     15474     15476     15479     15482     15475     15474     15476     15477
     15475     15474     15476     15478     15475     15474     15476     15479
     15476     15479     15482     15483     15476     15479     15482     15484
     15476     15479     15482     15485     15477     15476     15479     15480
     15477     15476     15479     15481     15477     15476     15479     15482
     15478     15476     15479     15480     15478     15476     15479     15481
     15478     15476     15479     15482     15479     15482     15485     15486
     15479     15482     15485     15487     15479     15482     15485     15488
     15480     15479     15482     15483     15480     15479     15482     15484
     15480     15479     15482     15485     15481     15479     15482     15483
     15481     15479     15482     15484     15481     15479     15482     15485
     15482     15485     15488     15489     15482     15485     15488     15490
     15482     15485     15488     15491     15483     15482     15485     15486
     15483     15482     15485     15487     15483     15482     15485     15488
     15484     15482     15485     15486     15484     15482     15485     15487
     15484     15482     15485     15488     15485     15488     15491     15492
     15485     15488     15491     15493     15485     15488     15491     15494
     15486     15485     15488     15489     15486     15485     15488     15490
     15486     15485     15488     15491     15487     15485     15488     15489
     15487     15485     15488     15490     15487     15485     15488     15491
     15488     15491     15494     15495     15488     15491     15494     15496
     15488     15491     15494     15497     15489     15488     15491     15492
     15489     15488     15491     15493     15489     15488     15491     15494
     15490     15488     15491     15492     15490     15488     15491     15493
     15490     15488     15491     15494     15491     15494     15497     15498
     15491     15494     15497     15499     15492     15491     15494     15495
     15492     15491     15494     15496     15492     15491     15494     15497
     15493     15491     15494     15495     15493     15491     15494     15496
     15493     15491     15494     15497     15494     15497     15499     15500
     15494     15497     15499     15501     15495     15494     15497     15498
     15495     15494     15497     15499     15496     15494     15497     15498
     15496     15494     15497     15499     15497     15499     15501     15502
     15497     15499     15501     15503     15497     15499     15501     15504
     15498     15497     15499     15500     15498     15497     15499     15501
     15499     15501     15504     15505     15499     15501     15504     15506
     15499     15501     15504     15507     15500     15499     15501     15502
     15500     15499     15501     15503     15500     15499     15501     15504
     15501     15504     15507     15508     15501     15504     15507     15509
     15501     15504     15507     15510     15502     15501     15504     15505
     15502     15501     15504     15506     15502     15501     15504     15507
     15503     15501     15504     15505     15503     15501     15504     15506
     15503     15501     15504     15507     15504     15507     15510     15511
     15504     15507     15510     15512     15504     15507     15510     15513
     15505     15504     15507     15508     15505     15504     15507     15509
     15505     15504     15507     15510     15506     15504     15507     15508
     15506     15504     15507     15509     15506     15504     15507     15510
     15507     15510     15513     15514     15507     15510     15513     15515
     15507     15510     15513     15516     15508     15507     15510     15511
     15508     15507     15510     15512     15508     15507     15510     15513
     15509     15507     15510     15511     15509     15507     15510     15512
     15509     15507     15510     15513     15510     15513     15516     15517
     15510     15513     15516     15518     15510     15513     15516     15519
     15511     15510     15513     15514     15511     15510     15513     15515
     15511     15510     15513     15516     15512     15510     15513     15514
     15512     15510     15513     15515     15512     15510     15513     15516
     15513     15516     15519     15520     15513     15516     15519     15521
     15513     15516     15519     15522     15514     15513     15516     15517
     15514     15513     15516     15518     15514     15513     15516     15519
     15515     15513     15516     15517     15515     15513     15516     15518
     15515     15513     15516     15519     15516     15519     15522     15523
     15516     15519     15522     15524     15516     15519     15522     15525
     15517     15516     15519     15520     15517     15516     15519     15521
     15517     15516     15519     15522     15518     15516     15519     15520
     15518     15516     15519     15521     15518     15516     15519     15522
     15520     15519     15522     15523     15520     15519     15522     15524
     15520     15519     15522     15525     15521     15519     15522     15523
     15521     15519     15522     15524     15521     15519     15522     15525
     15526     15539     15542     15543     15526     15539     15542     15544
     15526     15539     15542     15549     15527     15526     15531     15532
     15527     15526     15531     15533     15527     15526     15531     15534
     15527     15526     15535     15536     15527     15526     15535     15537
     15527     15526     15535     15538     15527     15526     15539     15540
     15527     15526     15539     15541     15527     15526     15539     15542
     15528     15527     15526     15531     15528     15527     15526     15535
     15528     15527     15526     15539     15529     15527     15526     15531
     15529     15527     15526     15535     15529     15527     15526     15539
     15530     15527     15526     15531     15530     15527     15526     15535
     15530     15527     15526     15539     15531     15526     15535     15536
     15531     15526     15535     15537     15531     15526     15535     15538
     15531     15526     15539     15540     15531     15526     15539     15541
     15531     15526     15539     15542     15532     15531     15526     15535
     15532     15531     15526     15539     15533     15531     15526     15535
     15533     15531     15526     15539     15534     15531     15526     15535
     15534     15531     15526     15539     15535     15526     15539     15540
     15535     15526     15539     15541     15535     15526     15539     15542
     15536     15535     15526     15539     15537     15535     15526     15539
     15538     15535     15526     15539     15539     15542     15549     15545
     15540     15539     15542     15543     15540     15539     15542     15544
     15540     15539     15542     15549     15541     15539     15542     15543
     15541     15539     15542     15544     15541     15539     15542     15549
     15542     15549     15545     15546     15542     15549     15545     15547
     15542     15549     15545     15548     15543     15542     15549     15545
     15544     15542     15549     15545     15545     15548     15550     15551
     15545     15548     15550     15552     15545     15548     15550     15555
     15546     15545     15548     15550     15547     15545     15548     15550
     15548     15550     15555     15553     15548     15550     15555     15556
     15548     15550     15555     15557     15549     15545     15548     15550
     15550     15555     15553     15554     15550     15555     15553     15605
     15550     15555     15557     15558     15550     15555     15557     15559
     15550     15555     15557     15561     15551     15550     15555     15553
     15551     15550     15555     15556     15551     15550     15555     15557
     15552     15550     15555     15553     15552     15550     15555     15556
     15552     15550     15555     15557     15553     15555     15557     15558
     15553     15555     15557     15559     15553     15555     15557     15561
     15553     15605     15607     15608     15553     15605     15607     15609
     15553     15605     15607     15610     15554     15553     15555     15556
     15554     15553     15555     15557     15554     15553     15605     15606
     15554     15553     15605     15607     15555     15553     15605     15606
     15555     15553     15605     15607     15555     15557     15559     15560
     15555     15557     15561     15562     15555     15557     15561     15563
     15556     15555     15553     15605     15556     15555     15557     15558
     15556     15555     15557     15559     15556     15555     15557     15561
     15557     15555     15553     15605     15557     15561     15563     15564
     15557     15561     15563     15565     15558     15557     15559     15560
     15558     15557     15561     15562     15558     15557     15561     15563
     15559     15557     15561     15562     15559     15557     15561     15563
     15560     15559     15557     15561     15561     15563     15565     15566
     15561     15563     15565     15567     15561     15563     15565     15568
     15562     15561     15563     15564     15562     15561     15563     15565
     15563     15565     15568     15569     15563     15565     15568     15570
     15563     15565     15568     15571     15564     15563     15565     15566
     15564     15563     15565     15567     15564     15563     15565     15568
     15565     15568     15571     15572     15565     15568     15571     15573
     15565     15568     15571     15574     15566     15565     15568     15569
     15566     15565     15568     15570     15566     15565     15568     15571
     15567     15565     15568     15569     15567     15565     15568     15570
     15567     15565     15568     15571     15568     15571     15574     15575
     15568     15571     15574     15576     15568     15571     15574     15577
     15569     15568     15571     15572     15569     15568     15571     15573
     15569     15568     15571     15574     15570     15568     15571     15572
     15570     15568     15571     15573     15570     15568     15571     15574
     15571     15574     15577     15578     15571     15574     15577     15579
     15571     15574     15577     15580     15572     15571     15574     15575
     15572     15571     15574     15576     15572     15571     15574     15577
     15573     15571     15574     15575     15573     15571     15574     15576
     15573     15571     15574     15577     15574     15577     15580     15581
     15574     15577     15580     15582     15574     15577     15580     15583
     15575     15574     15577     15578     15575     15574     15577     15579
     15575     15574     15577     15580     15576     15574     15577     15578
     15576     15574     15577     15579     15576     15574     15577     15580
     15577     15580     15583     15584     15577     15580     15583     15585
     15577     15580     15583     15586     15578     15577     15580     15581
     15578     15577     15580     15582     15578     15577     15580     15583
     15579     15577     15580     15581     15579     15577     15580     15582
     15579     15577     15580     15583     15580     15583     15586     15587
     15580     15583     15586     15588     15580     15583     15586     15589
     15581     15580     15583     15584     15581     15580     15583     15585
     15581     15580     15583     15586     15582     15580     15583     15584
     15582     15580     15583     15585     15582     15580     15583     15586
     15583     15586     15589     15590     15583     15586     15589     15591
     15583     15586     15589     15592     15584     15583     15586     15587
     15584     15583     15586     15588     15584     15583     15586     15589
     15585     15583     15586     15587     15585     15583     15586     15588
     15585     15583     15586     15589     15586     15589     15592     15593
     15586     15589     15592     15594     15586     15589     15592     15595
     15587     15586     15589     15590     15587     15586     15589     15591
     15587     15586     15589     15592     15588     15586     15589     15590
     15588     15586     15589     15591     15588     15586     15589     15592
     15589     15592     15595     15596     15589     15592     15595     15597
     15589     15592     15595     15598     15590     15589     15592     15593
     15590     15589     15592     15594     15590     15589     15592     15595
     15591     15589     15592     15593     15591     15589     15592     15594
     15591     15589     15592     15595     15592     15595     15598     15599
     15592     15595     15598     15600     15592     15595     15598     15601
     15593     15592     15595     15596     15593     15592     15595     15597
     15593     15592     15595     15598     15594     15592     15595     15596
     15594     15592     15595     15597     15594     15592     15595     15598
     15595     15598     15601     15602     15595     15598     15601     15603
     15595     15598     15601     15604     15596     15595     15598     15599
     15596     15595     15598     15600     15596     15595     15598     15601
     15597     15595     15598     15599     15597     15595     15598     15600
     15597     15595     15598     15601     15599     15598     15601     15602
     15599     15598     15601     15603     15599     15598     15601     15604
     15600     15598     15601     15602     15600     15598     15601     15603
     15600     15598     15601     15604     15605     15607     15610     15611
     15605     15607     15610     15612     15605     15607     15610     15613
     15606     15605     15607     15608     15606     15605     15607     15609
     15606     15605     15607     15610     15607     15610     15613     15614
     15607     15610     15613     15615     15607     15610     15613     15616
     15608     15607     15610     15611     15608     15607     15610     15612
     15608     15607     15610     15613     15609     15607     15610     15611
     15609     15607     15610     15612     15609     15607     15610     15613
     15610     15613     15616     15617     15610     15613     15616     15618
     15610     15613     15616     15619     15611     15610     15613     15614
     15611     15610     15613     15615     15611     15610     15613     15616
     15612     15610     15613     15614     15612     15610     15613     15615
     15612     15610     15613     15616     15613     15616     15619     15620
     15613     15616     15619     15621     15613     15616     15619     15622
     15614     15613     15616     15617     15614     15613     15616     15618
     15614     15613     15616     15619     15615     15613     15616     15617
     15615     15613     15616     15618     15615     15613     15616     15619
     15616     15619     15622     15623     15616     15619     15622     15624
     15616     15619     15622     15625     15617     15616     15619     15620
     15617     15616     15619     15621     15617     15616     15619     15622
     15618     15616     15619     15620     15618     15616     15619     15621
     15618     15616     15619     15622     15619     15622     15625     15626
     15619     15622     15625     15627     15619     15622     15625     15628
     15620     15619     15622     15623     15620     15619     15622     15624
     15620     15619     15622     15625     15621     15619     15622     15623
     15621     15619     15622     15624     15621     15619     15622     15625
     15622     15625     15628     15629     15622     15625     15628     15630
     15623     15622     15625     15626     15623     15622     15625     15627
     15623     15622     15625     15628     15624     15622     15625     15626
     15624     15622     15625     15627     15624     15622     15625     15628
     15625     15628     15630     15631     15625     15628     15630     15632
     15626     15625     15628     15629     15626     15625     15628     15630
     15627     15625     15628     15629     15627     15625     15628     15630
     15628     15630     15632     15633     15628     15630     15632     15634
     15628     15630     15632     15635     15629     15628     15630     15631
     15629     15628     15630     15632     15630     15632     15635     15636
     15630     15632     15635     15637     15630     15632     15635     15638
     15631     15630     15632     15633     15631     15630     15632     15634
     15631     15630     15632     15635     15632     15635     15638     15639
     15632     15635     15638     15640     15632     15635     15638     15641
     15633     15632     15635     15636     15633     15632     15635     15637
     15633     15632     15635     15638     15634     15632     15635     15636
     15634     15632     15635     15637     15634     15632     15635     15638
     15635     15638     15641     15642     15635     15638     15641     15643
     15635     15638     15641     15644     15636     15635     15638     15639
     15636     15635     15638     15640     15636     15635     15638     15641
     15637     15635     15638     15639     15637     15635     15638     15640
     15637     15635     15638     15641     15638     15641     15644     15645
     15638     15641     15644     15646     15638     15641     15644     15647
     15639     15638     15641     15642     15639     15638     15641     15643
     15639     15638     15641     15644     15640     15638     15641     15642
     15640     15638     15641     15643     15640     15638     15641     15644
     15641     15644     15647     15648     15641     15644     15647     15649
     15641     15644     15647     15650     15642     15641     15644     15645
     15642     15641     15644     15646     15642     15641     15644     15647
     15643     15641     15644     15645     15643     15641     15644     15646
     15643     15641     15644     15647     15644     15647     15650     15651
     15644     15647     15650     15652     15644     15647     15650     15653
     15645     15644     15647     15648     15645     15644     15647     15649
     15645     15644     15647     15650     15646     15644     15647     15648
     15646     15644     15647     15649     15646     15644     15647     15650
     15647     15650     15653     15654     15647     15650     15653     15655
     15647     15650     15653     15656     15648     15647     15650     15651
     15648     15647     15650     15652     15648     15647     15650     15653
     15649     15647     15650     15651     15649     15647     15650     15652
     15649     15647     15650     15653     15651     15650     15653     15654
     15651     15650     15653     15655     15651     15650     15653     15656
     15652     15650     15653     15654     15652     15650     15653     15655
     15652     15650     15653     15656     15657     15670     15673     15674
     15657     15670     15673     15675     15657     15670     15673     15679
     15658     15657     15662     15663     15658     15657     15662     15664
     15658     15657     15662     15665     15658     15657     15666     15667
     15658     15657     15666     15668     15658     15657     15666     15669
     15658     15657     15670     15671     15658     15657     15670     15672
     15658     15657     15670     15673     15659     15658     15657     15662
     15659     15658     15657     15666     15659     15658     15657     15670
     15660     15658     15657     15662     15660     15658     15657     15666
     15660     15658     15657     15670     15661     15658     15657     15662
     15661     15658     15657     15666     15661     15658     15657     15670
     15662     15657     15666     15667     15662     15657     15666     15668
     15662     15657     15666     15669     15662     15657     15670     15671
     15662     15657     15670     15672     15662     15657     15670     15673
     15663     15662     15657     15666     15663     15662     15657     15670
     15664     15662     15657     15666     15664     15662     15657     15670
     15665     15662     15657     15666     15665     15662     15657     15670
     15666     15657     15670     15671     15666     15657     15670     15672
     15666     15657     15670     15673     15667     15666     15657     15670
     15668     15666     15657     15670     15669     15666     15657     15670
     15670     15673     15679     15676     15671     15670     15673     15674
     15671     15670     15673     15675     15671     15670     15673     15679
     15672     15670     15673     15674     15672     15670     15673     15675
     15672     15670     15673     15679     15673     15679     15676     15677
     15673     15679     15676     15678     15673     15679     15676     15680
     15674     15673     15679     15676     15675     15673     15679     15676
     15676     15680     15681     15682     15676     15680     15681     15683
     15676     15680     15681     15684     15677     15676     15680     15681
     15678     15676     15680     15681     15679     15676     15680     15681
     15680     15681     15684     15685     15680     15681     15684     15686
     15680     15681     15684     15692     15681     15684     15686     15687
     15681     15684     15692     15693     15681     15684     15692     15694
     15681     15684     15692     15695     15682     15681     15684     15685
     15682     15681     15684     15686     15682     15681     15684     15692
     15683     15681     15684     15685     15683     15681     15684     15686
     15683     15681     15684     15692     15684     15686     15687     15688
     15684     15686     15687     15689     15684     15692     15695     15696
     15685     15684     15686     15687     15685     15684     15692     15693
     15685     15684     15692     15694     15685     15684     15692     15695
     15686     15684     15692     15693     15686     15684     15692     15694
     15686     15684     15692     15695     15686     15687     15689     15690
     15686     15687     15689     15691     15686     15687     15689     15701
     15687     15686     15684     15692     15687     15689     15701     15702
     15687     15689     15701     15703     15687     15689     15701     15704
     15688     15687     15689     15690     15688     15687     15689     15691
     15688     15687     15689     15701     15689     15701     15704     15705
     15689     15701     15704     15706     15689     15701     15704     15707
     15690     15689     15701     15702     15690     15689     15701     15703
     15690     15689     15701     15704     15691     15689     15701     15702
     15691     15689     15701     15703     15691     15689     15701     15704
     15692     15695     15696     15697     15692     15695     15696     15698
     15693     15692     15695     15696     15694     15692     15695     15696
     15695     15696     15698     15699     15695     15696     15698     15700
     15695     15696     15698     15746     15696     15698     15746     15747
     15696     15698     15746     15748     15696     15698     15746     15749
     15697     15696     15698     15699     15697     15696     15698     15700
     15697     15696     15698     15746     15698     15746     15749     15750
     15698     15746     15749     15751     15698     15746     15749     15752
     15699     15698     15746     15747     15699     15698     15746     15748
     15699     15698     15746     15749     15700     15698     15746     15747
     15700     15698     15746     15748     15700     15698     15746     15749
     15701     15704     15707     15708     15701     15704     15707     15709
     15701     15704     15707     15710     15702     15701     15704     15705
     15702     15701     15704     15706     15702     15701     15704     15707
     15703     15701     15704     15705     15703     15701     15704     15706
     15703     15701     15704     15707     15704     15707     15710     15711
     15704     15707     15710     15712     15704     15707     15710     15713
     15705     15704     15707     15708     15705     15704     15707     15709
     15705     15704     15707     15710     15706     15704     15707     15708
     15706     15704     15707     15709     15706     15704     15707     15710
     15707     15710     15713     15714     15707     15710     15713     15715
     15707     15710     15713     15716     15708     15707     15710     15711
     15708     15707     15710     15712     15708     15707     15710     15713
     15709     15707     15710     15711     15709     15707     15710     15712
     15709     15707     15710     15713     15710     15713     15716     15717
     15710     15713     15716     15718     15710     15713     15716     15719
     15711     15710     15713     15714     15711     15710     15713     15715
     15711     15710     15713     15716     15712     15710     15713     15714
     15712     15710     15713     15715     15712     15710     15713     15716
     15713     15716     15719     15720     15713     15716     15719     15721
     15714     15713     15716     15717     15714     15713     15716     15718
     15714     15713     15716     15719     15715     15713     15716     15717
     15715     15713     15716     15718     15715     15713     15716     15719
     15716     15719     15721     15722     15716     15719     15721     15723
     15717     15716     15719     15720     15717     15716     15719     15721
     15718     15716     15719     15720     15718     15716     15719     15721
     15719     15721     15723     15724     15719     15721     15723     15725
     15719     15721     15723     15726     15720     15719     15721     15722
     15720     15719     15721     15723     15721     15723     15726     15727
     15721     15723     15726     15728     15722     15721     15723     15724
     15722     15721     15723     15725     15722     15721     15723     15726
     15723     15726     15728     15729     15723     15726     15728     15730
     15724     15723     15726     15727     15724     15723     15726     15728
     15725     15723     15726     15727     15725     15723     15726     15728
     15726     15728     15730     15731     15726     15728     15730     15732
     15726     15728     15730     15733     15727     15726     15728     15729
     15727     15726     15728     15730     15728     15730     15733     15734
     15728     15730     15733     15735     15728     15730     15733     15736
     15729     15728     15730     15731     15729     15728     15730     15732
     15729     15728     15730     15733     15730     15733     15736     15737
     15730     15733     15736     15738     15730     15733     15736     15739
     15731     15730     15733     15734     15731     15730     15733     15735
     15731     15730     15733     15736     15732     15730     15733     15734
     15732     15730     15733     15735     15732     15730     15733     15736
     15733     15736     15739     15740     15733     15736     15739     15741
     15733     15736     15739     15742     15734     15733     15736     15737
     15734     15733     15736     15738     15734     15733     15736     15739
     15735     15733     15736     15737     15735     15733     15736     15738
     15735     15733     15736     15739     15736     15739     15742     15743
     15736     15739     15742     15744     15736     15739     15742     15745
     15737     15736     15739     15740     15737     15736     15739     15741
     15737     15736     15739     15742     15738     15736     15739     15740
     15738     15736     15739     15741     15738     15736     15739     15742
     15740     15739     15742     15743     15740     15739     15742     15744
     15740     15739     15742     15745     15741     15739     15742     15743
     15741     15739     15742     15744     15741     15739     15742     15745
     15746     15749     15752     15753     15746     15749     15752     15754
     15746     15749     15752     15755     15747     15746     15749     15750
     15747     15746     15749     15751     15747     15746     15749     15752
     15748     15746     15749     15750     15748     15746     15749     15751
     15748     15746     15749     15752     15749     15752     15755     15756
     15749     15752     15755     15757     15749     15752     15755     15758
     15750     15749     15752     15753     15750     15749     15752     15754
     15750     15749     15752     15755     15751     15749     15752     15753
     15751     15749     15752     15754     15751     15749     15752     15755
     15752     15755     15758     15759     15752     15755     15758     15760
     15752     15755     15758     15761     15753     15752     15755     15756
     15753     15752     15755     15757     15753     15752     15755     15758
     15754     15752     15755     15756     15754     15752     15755     15757
     15754     15752     15755     15758     15755     15758     15761     15762
     15755     15758     15761     15763     15755     15758     15761     15764
     15756     15755     15758     15759     15756     15755     15758     15760
     15756     15755     15758     15761     15757     15755     15758     15759
     15757     15755     15758     15760     15757     15755     15758     15761
     15758     15761     15764     15765     15758     15761     15764     15766
     15758     15761     15764     15767     15759     15758     15761     15762
     15759     15758     15761     15763     15759     15758     15761     15764
     15760     15758     15761     15762     15760     15758     15761     15763
     15760     15758     15761     15764     15761     15764     15767     15768
     15761     15764     15767     15769     15761     15764     15767     15770
     15762     15761     15764     15765     15762     15761     15764     15766
     15762     15761     15764     15767     15763     15761     15764     15765
     15763     15761     15764     15766     15763     15761     15764     15767
     15764     15767     15770     15771     15764     15767     15770     15772
     15764     15767     15770     15773     15765     15764     15767     15768
     15765     15764     15767     15769     15765     15764     15767     15770
     15766     15764     15767     15768     15766     15764     15767     15769
     15766     15764     15767     15770     15767     15770     15773     15774
     15767     15770     15773     15775     15767     15770     15773     15776
     15768     15767     15770     15771     15768     15767     15770     15772
     15768     15767     15770     15773     15769     15767     15770     15771
     15769     15767     15770     15772     15769     15767     15770     15773
     15770     15773     15776     15777     15770     15773     15776     15778
     15770     15773     15776     15779     15771     15770     15773     15774
     15771     15770     15773     15775     15771     15770     15773     15776
     15772     15770     15773     15774     15772     15770     15773     15775
     15772     15770     15773     15776     15773     15776     15779     15780
     15773     15776     15779     15781     15773     15776     15779     15782
     15774     15773     15776     15777     15774     15773     15776     15778
     15774     15773     15776     15779     15775     15773     15776     15777
     15775     15773     15776     15778     15775     15773     15776     15779
     15776     15779     15782     15783     15776     15779     15782     15784
     15776     15779     15782     15785     15777     15776     15779     15780
     15777     15776     15779     15781     15777     15776     15779     15782
     15778     15776     15779     15780     15778     15776     15779     15781
     15778     15776     15779     15782     15779     15782     15785     15786
     15779     15782     15785     15787     15779     15782     15785     15788
     15780     15779     15782     15783     15780     15779     15782     15784
     15780     15779     15782     15785     15781     15779     15782     15783
     15781     15779     15782     15784     15781     15779     15782     15785
     15782     15785     15788     15789     15782     15785     15788     15790
     15782     15785     15788     15791     15783     15782     15785     15786
     15783     15782     15785     15787     15783     15782     15785     15788
     15784     15782     15785     15786     15784     15782     15785     15787
     15784     15782     15785     15788     15785     15788     15791     15792
     15785     15788     15791     15793     15785     15788     15791     15794
     15786     15785     15788     15789     15786     15785     15788     15790
     15786     15785     15788     15791     15787     15785     15788     15789
     15787     15785     15788     15790     15787     15785     15788     15791
     15789     15788     15791     15792     15789     15788     15791     15793
     15789     15788     15791     15794     15790     15788     15791     15792
     15790     15788     15791     15793     15790     15788     15791     15794
     15795     15808     15811     15812     15795     15808     15811     15813
     15795     15808     15811     15818     15796     15795     15800     15801
     15796     15795     15800     15802     15796     15795     15800     15803
     15796     15795     15804     15805     15796     15795     15804     15806
     15796     15795     15804     15807     15796     15795     15808     15809
     15796     15795     15808     15810     15796     15795     15808     15811
     15797     15796     15795     15800     15797     15796     15795     15804
     15797     15796     15795     15808     15798     15796     15795     15800
     15798     15796     15795     15804     15798     15796     15795     15808
     15799     15796     15795     15800     15799     15796     15795     15804
     15799     15796     15795     15808     15800     15795     15804     15805
     15800     15795     15804     15806     15800     15795     15804     15807
     15800     15795     15808     15809     15800     15795     15808     15810
     15800     15795     15808     15811     15801     15800     15795     15804
     15801     15800     15795     15808     15802     15800     15795     15804
     15802     15800     15795     15808     15803     15800     15795     15804
     15803     15800     15795     15808     15804     15795     15808     15809
     15804     15795     15808     15810     15804     15795     15808     15811
     15805     15804     15795     15808     15806     15804     15795     15808
     15807     15804     15795     15808     15808     15811     15818     15814
     15809     15808     15811     15812     15809     15808     15811     15813
     15809     15808     15811     15818     15810     15808     15811     15812
     15810     15808     15811     15813     15810     15808     15811     15818
     15811     15818     15814     15815     15811     15818     15814     15816
     15811     15818     15814     15817     15812     15811     15818     15814
     15813     15811     15818     15814     15814     15817     15819     15820
     15814     15817     15819     15821     15814     15817     15819     15824
     15815     15814     15817     15819     15816     15814     15817     15819
     15817     15819     15824     15822     15817     15819     15824     15825
     15817     15819     15824     15826     15818     15814     15817     15819
     15819     15824     15822     15823     15819     15824     15822     15874
     15819     15824     15826     15827     15819     15824     15826     15828
     15819     15824     15826     15830     15820     15819     15824     15822
     15820     15819     15824     15825     15820     15819     15824     15826
     15821     15819     15824     15822     15821     15819     15824     15825
     15821     15819     15824     15826     15822     15824     15826     15827
     15822     15824     15826     15828     15822     15824     15826     15830
     15822     15874     15876     15877     15822     15874     15876     15878
     15822     15874     15876     15879     15823     15822     15824     15825
     15823     15822     15824     15826     15823     15822     15874     15875
     15823     15822     15874     15876     15824     15822     15874     15875
     15824     15822     15874     15876     15824     15826     15828     15829
     15824     15826     15830     15831     15824     15826     15830     15832
     15825     15824     15822     15874     15825     15824     15826     15827
     15825     15824     15826     15828     15825     15824     15826     15830
     15826     15824     15822     15874     15826     15830     15832     15833
     15826     15830     15832     15834     15827     15826     15828     15829
     15827     15826     15830     15831     15827     15826     15830     15832
     15828     15826     15830     15831     15828     15826     15830     15832
     15829     15828     15826     15830     15830     15832     15834     15835
     15830     15832     15834     15836     15830     15832     15834     15837
     15831     15830     15832     15833     15831     15830     15832     15834
     15832     15834     15837     15838     15832     15834     15837     15839
     15832     15834     15837     15840     15833     15832     15834     15835
     15833     15832     15834     15836     15833     15832     15834     15837
     15834     15837     15840     15841     15834     15837     15840     15842
     15834     15837     15840     15843     15835     15834     15837     15838
     15835     15834     15837     15839     15835     15834     15837     15840
     15836     15834     15837     15838     15836     15834     15837     15839
     15836     15834     15837     15840     15837     15840     15843     15844
     15837     15840     15843     15845     15837     15840     15843     15846
     15838     15837     15840     15841     15838     15837     15840     15842
     15838     15837     15840     15843     15839     15837     15840     15841
     15839     15837     15840     15842     15839     15837     15840     15843
     15840     15843     15846     15847     15840     15843     15846     15848
     15840     15843     15846     15849     15841     15840     15843     15844
     15841     15840     15843     15845     15841     15840     15843     15846
     15842     15840     15843     15844     15842     15840     15843     15845
     15842     15840     15843     15846     15843     15846     15849     15850
     15843     15846     15849     15851     15843     15846     15849     15852
     15844     15843     15846     15847     15844     15843     15846     15848
     15844     15843     15846     15849     15845     15843     15846     15847
     15845     15843     15846     15848     15845     15843     15846     15849
     15846     15849     15852     15853     15846     15849     15852     15854
     15846     15849     15852     15855     15847     15846     15849     15850
     15847     15846     15849     15851     15847     15846     15849     15852
     15848     15846     15849     15850     15848     15846     15849     15851
     15848     15846     15849     15852     15849     15852     15855     15856
     15849     15852     15855     15857     15849     15852     15855     15858
     15850     15849     15852     15853     15850     15849     15852     15854
     15850     15849     15852     15855     15851     15849     15852     15853
     15851     15849     15852     15854     15851     15849     15852     15855
     15852     15855     15858     15859     15852     15855     15858     15860
     15852     15855     15858     15861     15853     15852     15855     15856
     15853     15852     15855     15857     15853     15852     15855     15858
     15854     15852     15855     15856     15854     15852     15855     15857
     15854     15852     15855     15858     15855     15858     15861     15862
     15855     15858     15861     15863     15855     15858     15861     15864
     15856     15855     15858     15859     15856     15855     15858     15860
     15856     15855     15858     15861     15857     15855     15858     15859
     15857     15855     15858     15860     15857     15855     15858     15861
     15858     15861     15864     15865     15858     15861     15864     15866
     15858     15861     15864     15867     15859     15858     15861     15862
     15859     15858     15861     15863     15859     15858     15861     15864
     15860     15858     15861     15862     15860     15858     15861     15863
     15860     15858     15861     15864     15861     15864     15867     15868
     15861     15864     15867     15869     15861     15864     15867     15870
     15862     15861     15864     15865     15862     15861     15864     15866
     15862     15861     15864     15867     15863     15861     15864     15865
     15863     15861     15864     15866     15863     15861     15864     15867
     15864     15867     15870     15871     15864     15867     15870     15872
     15864     15867     15870     15873     15865     15864     15867     15868
     15865     15864     15867     15869     15865     15864     15867     15870
     15866     15864     15867     15868     15866     15864     15867     15869
     15866     15864     15867     15870     15868     15867     15870     15871
     15868     15867     15870     15872     15868     15867     15870     15873
     15869     15867     15870     15871     15869     15867     15870     15872
     15869     15867     15870     15873     15874     15876     15879     15880
     15874     15876     15879     15881     15874     15876     15879     15882
     15875     15874     15876     15877     15875     15874     15876     15878
     15875     15874     15876     15879     15876     15879     15882     15883
     15876     15879     15882     15884     15876     15879     15882     15885
     15877     15876     15879     15880     15877     15876     15879     15881
     15877     15876     15879     15882     15878     15876     15879     15880
     15878     15876     15879     15881     15878     15876     15879     15882
     15879     15882     15885     15886     15879     15882     15885     15887
     15879     15882     15885     15888     15880     15879     15882     15883
     15880     15879     15882     15884     15880     15879     15882     15885
     15881     15879     15882     15883     15881     15879     15882     15884
     15881     15879     15882     15885     15882     15885     15888     15889
     15882     15885     15888     15890     15882     15885     15888     15891
     15883     15882     15885     15886     15883     15882     15885     15887
     15883     15882     15885     15888     15884     15882     15885     15886
     15884     15882     15885     15887     15884     15882     15885     15888
     15885     15888     15891     15892     15885     15888     15891     15893
     15885     15888     15891     15894     15886     15885     15888     15889
     15886     15885     15888     15890     15886     15885     15888     15891
     15887     15885     15888     15889     15887     15885     15888     15890
     15887     15885     15888     15891     15888     15891     15894     15895
     15888     15891     15894     15896     15888     15891     15894     15897
     15889     15888     15891     15892     15889     15888     15891     15893
     15889     15888     15891     15894     15890     15888     15891     15892
     15890     15888     15891     15893     15890     15888     15891     15894
     15891     15894     15897     15898     15891     15894     15897     15899
     15892     15891     15894     15895     15892     15891     15894     15896
     15892     15891     15894     15897     15893     15891     15894     15895
     15893     15891     15894     15896     15893     15891     15894     15897
     15894     15897     15899     15900     15894     15897     15899     15901
     15895     15894     15897     15898     15895     15894     15897     15899
     15896     15894     15897     15898     15896     15894     15897     15899
     15897     15899     15901     15902     15897     15899     15901     15903
     15897     15899     15901     15904     15898     15897     15899     15900
     15898     15897     15899     15901     15899     15901     15904     15905
     15899     15901     15904     15906     15899     15901     15904     15907
     15900     15899     15901     15902     15900     15899     15901     15903
     15900     15899     15901     15904     15901     15904     15907     15908
     15901     15904     15907     15909     15901     15904     15907     15910
     15902     15901     15904     15905     15902     15901     15904     15906
     15902     15901     15904     15907     15903     15901     15904     15905
     15903     15901     15904     15906     15903     15901     15904     15907
     15904     15907     15910     15911     15904     15907     15910     15912
     15904     15907     15910     15913     15905     15904     15907     15908
     15905     15904     15907     15909     15905     15904     15907     15910
     15906     15904     15907     15908     15906     15904     15907     15909
     15906     15904     15907     15910     15907     15910     15913     15914
     15907     15910     15913     15915     15907     15910     15913     15916
     15908     15907     15910     15911     15908     15907     15910     15912
     15908     15907     15910     15913     15909     15907     15910     15911
     15909     15907     15910     15912     15909     15907     15910     15913
     15910     15913     15916     15917     15910     15913     15916     15918
     15910     15913     15916     15919     15911     15910     15913     15914
     15911     15910     15913     15915     15911     15910     15913     15916
     15912     15910     15913     15914     15912     15910     15913     15915
     15912     15910     15913     15916     15913     15916     15919     15920
     15913     15916     15919     15921     15913     15916     15919     15922
     15914     15913     15916     15917     15914     15913     15916     15918
     15914     15913     15916     15919     15915     15913     15916     15917
     15915     15913     15916     15918     15915     15913     15916     15919
     15916     15919     15922     15923     15916     15919     15922     15924
     15916     15919     15922     15925     15917     15916     15919     15920
     15917     15916     15919     15921     15917     15916     15919     15922
     15918     15916     15919     15920     15918     15916     15919     15921
     15918     15916     15919     15922     15920     15919     15922     15923
     15920     15919     15922     15924     15920     15919     15922     15925
     15921     15919     15922     15923     15921     15919     15922     15924
     15921     15919     15922     15925     15926     15939     15942     15943
     15926     15939     15942     15944     15926     15939     15942     15949
     15927     15926     15931     15932     15927     15926     15931     15933
     15927     15926     15931     15934     15927     15926     15935     15936
     15927     15926     15935     15937     15927     15926     15935     15938
     15927     15926     15939     15940     15927     15926     15939     15941
     15927     15926     15939     15942     15928     15927     15926     15931
     15928     15927     15926     15935     15928     15927     15926     15939
     15929     15927     15926     15931     15929     15927     15926     15935
     15929     15927     15926     15939     15930     15927     15926     15931
     15930     15927     15926     15935     15930     15927     15926     15939
     15931     15926     15935     15936     15931     15926     15935     15937
     15931     15926     15935     15938     15931     15926     15939     15940
     15931     15926     15939     15941     15931     15926     15939     15942
     15932     15931     15926     15935     15932     15931     15926     15939
     15933     15931     15926     15935     15933     15931     15926     15939
     15934     15931     15926     15935     15934     15931     15926     15939
     15935     15926     15939     15940     15935     15926     15939     15941
     15935     15926     15939     15942     15936     15935     15926     15939
     15937     15935     15926     15939     15938     15935     15926     15939
     15939     15942     15949     15945     15940     15939     15942     15943
     15940     15939     15942     15944     15940     15939     15942     15949
     15941     15939     15942     15943     15941     15939     15942     15944
     15941     15939     15942     15949     15942     15949     15945     15946
     15942     15949     15945     15947     15942     15949     15945     15948
     15943     15942     15949     15945     15944     15942     15949     15945
     15945     15948     15950     15951     15945     15948     15950     15952
     15945     15948     15950     15955     15946     15945     15948     15950
     15947     15945     15948     15950     15948     15950     15955     15953
     15948     15950     15955     15956     15948     15950     15955     15957
     15949     15945     15948     15950     15950     15955     15953     15954
     15950     15955     15953     16005     15950     15955     15957     15958
     15950     15955     15957     15959     15950     15955     15957     15961
     15951     15950     15955     15953     15951     15950     15955     15956
     15951     15950     15955     15957     15952     15950     15955     15953
     15952     15950     15955     15956     15952     15950     15955     15957
     15953     15955     15957     15958     15953     15955     15957     15959
     15953     15955     15957     15961     15953     16005     16007     16008
     15953     16005     16007     16009     15953     16005     16007     16010
     15954     15953     15955     15956     15954     15953     15955     15957
     15954     15953     16005     16006     15954     15953     16005     16007
     15955     15953     16005     16006     15955     15953     16005     16007
     15955     15957     15959     15960     15955     15957     15961     15962
     15955     15957     15961     15963     15956     15955     15953     16005
     15956     15955     15957     15958     15956     15955     15957     15959
     15956     15955     15957     15961     15957     15955     15953     16005
     15957     15961     15963     15964     15957     15961     15963     15965
     15958     15957     15959     15960     15958     15957     15961     15962
     15958     15957     15961     15963     15959     15957     15961     15962
     15959     15957     15961     15963     15960     15959     15957     15961
     15961     15963     15965     15966     15961     15963     15965     15967
     15961     15963     15965     15968     15962     15961     15963     15964
     15962     15961     15963     15965     15963     15965     15968     15969
     15963     15965     15968     15970     15963     15965     15968     15971
     15964     15963     15965     15966     15964     15963     15965     15967
     15964     15963     15965     15968     15965     15968     15971     15972
     15965     15968     15971     15973     15965     15968     15971     15974
     15966     15965     15968     15969     15966     15965     15968     15970
     15966     15965     15968     15971     15967     15965     15968     15969
     15967     15965     15968     15970     15967     15965     15968     15971
     15968     15971     15974     15975     15968     15971     15974     15976
     15968     15971     15974     15977     15969     15968     15971     15972
     15969     15968     15971     15973     15969     15968     15971     15974
     15970     15968     15971     15972     15970     15968     15971     15973
     15970     15968     15971     15974     15971     15974     15977     15978
     15971     15974     15977     15979     15971     15974     15977     15980
     15972     15971     15974     15975     15972     15971     15974     15976
     15972     15971     15974     15977     15973     15971     15974     15975
     15973     15971     15974     15976     15973     15971     15974     15977
     15974     15977     15980     15981     15974     15977     15980     15982
     15974     15977     15980     15983     15975     15974     15977     15978
     15975     15974     15977     15979     15975     15974     15977     15980
     15976     15974     15977     15978     15976     15974     15977     15979
     15976     15974     15977     15980     15977     15980     15983     15984
     15977     15980     15983     15985     15977     15980     15983     15986
     15978     15977     15980     15981     15978     15977     15980     15982
     15978     15977     15980     15983     15979     15977     15980     15981
     15979     15977     15980     15982     15979     15977     15980     15983
     15980     15983     15986     15987     15980     15983     15986     15988
     15980     15983     15986     15989     15981     15980     15983     15984
     15981     15980     15983     15985     15981     15980     15983     15986
     15982     15980     15983     15984     15982     15980     15983     15985
     15982     15980     15983     15986     15983     15986     15989     15990
     15983     15986     15989     15991     15983     15986     15989     15992
     15984     15983     15986     15987     15984     15983     15986     15988
     15984     15983     15986     15989     15985     15983     15986     15987
     15985     15983     15986     15988     15985     15983     15986     15989
     15986     15989     15992     15993     15986     15989     15992     15994
     15986     15989     15992     15995     15987     15986     15989     15990
     15987     15986     15989     15991     15987     15986     15989     15992
     15988     15986     15989     15990     15988     15986     15989     15991
     15988     15986     15989     15992     15989     15992     15995     15996
     15989     15992     15995     15997     15989     15992     15995     15998
     15990     15989     15992     15993     15990     15989     15992     15994
     15990     15989     15992     15995     15991     15989     15992     15993
     15991     15989     15992     15994     15991     15989     15992     15995
     15992     15995     15998     15999     15992     15995     15998     16000
     15992     15995     15998     16001     15993     15992     15995     15996
     15993     15992     15995     15997     15993     15992     15995     15998
     15994     15992     15995     15996     15994     15992     15995     15997
     15994     15992     15995     15998     15995     15998     16001     16002
     15995     15998     16001     16003     15995     15998     16001     16004
     15996     15995     15998     15999     15996     15995     15998     16000
     15996     15995     15998     16001     15997     15995     15998     15999
     15997     15995     15998     16000     15997     15995     15998     16001
     15999     15998     16001     16002     15999     15998     16001     16003
     15999     15998     16001     16004     16000     15998     16001     16002
     16000     15998     16001     16003     16000     15998     16001     16004
     16005     16007     16010     16011     16005     16007     16010     16012
     16005     16007     16010     16013     16006     16005     16007     16008
     16006     16005     16007     16009     16006     16005     16007     16010
     16007     16010     16013     16014     16007     16010     16013     16015
     16007     16010     16013     16016     16008     16007     16010     16011
     16008     16007     16010     16012     16008     16007     16010     16013
     16009     16007     16010     16011     16009     16007     16010     16012
     16009     16007     16010     16013     16010     16013     16016     16017
     16010     16013     16016     16018     16010     16013     16016     16019
     16011     16010     16013     16014     16011     16010     16013     16015
     16011     16010     16013     16016     16012     16010     16013     16014
     16012     16010     16013     16015     16012     16010     16013     16016
     16013     16016     16019     16020     16013     16016     16019     16021
     16013     16016     16019     16022     16014     16013     16016     16017
     16014     16013     16016     16018     16014     16013     16016     16019
     16015     16013     16016     16017     16015     16013     16016     16018
     16015     16013     16016     16019     16016     16019     16022     16023
     16016     16019     16022     16024     16016     16019     16022     16025
     16017     16016     16019     16020     16017     16016     16019     16021
     16017     16016     16019     16022     16018     16016     16019     16020
     16018     16016     16019     16021     16018     16016     16019     16022
     16019     16022     16025     16026     16019     16022     16025     16027
     16019     16022     16025     16028     16020     16019     16022     16023
     16020     16019     16022     16024     16020     16019     16022     16025
     16021     16019     16022     16023     16021     16019     16022     16024
     16021     16019     16022     16025     16022     16025     16028     16029
     16022     16025     16028     16030     16023     16022     16025     16026
     16023     16022     16025     16027     16023     16022     16025     16028
     16024     16022     16025     16026     16024     16022     16025     16027
     16024     16022     16025     16028     16025     16028     16030     16031
     16025     16028     16030     16032     16026     16025     16028     16029
     16026     16025     16028     16030     16027     16025     16028     16029
     16027     16025     16028     16030     16028     16030     16032     16033
     16028     16030     16032     16034     16028     16030     16032     16035
     16029     16028     16030     16031     16029     16028     16030     16032
     16030     16032     16035     16036     16030     16032     16035     16037
     16030     16032     16035     16038     16031     16030     16032     16033
     16031     16030     16032     16034     16031     16030     16032     16035
     16032     16035     16038     16039     16032     16035     16038     16040
     16032     16035     16038     16041     16033     16032     16035     16036
     16033     16032     16035     16037     16033     16032     16035     16038
     16034     16032     16035     16036     16034     16032     16035     16037
     16034     16032     16035     16038     16035     16038     16041     16042
     16035     16038     16041     16043     16035     16038     16041     16044
     16036     16035     16038     16039     16036     16035     16038     16040
     16036     16035     16038     16041     16037     16035     16038     16039
     16037     16035     16038     16040     16037     16035     16038     16041
     16038     16041     16044     16045     16038     16041     16044     16046
     16038     16041     16044     16047     16039     16038     16041     16042
     16039     16038     16041     16043     16039     16038     16041     16044
     16040     16038     16041     16042     16040     16038     16041     16043
     16040     16038     16041     16044     16041     16044     16047     16048
     16041     16044     16047     16049     16041     16044     16047     16050
     16042     16041     16044     16045     16042     16041     16044     16046
     16042     16041     16044     16047     16043     16041     16044     16045
     16043     16041     16044     16046     16043     16041     16044     16047
     16044     16047     16050     16051     16044     16047     16050     16052
     16044     16047     16050     16053     16045     16044     16047     16048
     16045     16044     16047     16049     16045     16044     16047     16050
     16046     16044     16047     16048     16046     16044     16047     16049
     16046     16044     16047     16050     16047     16050     16053     16054
     16047     16050     16053     16055     16047     16050     16053     16056
     16048     16047     16050     16051     16048     16047     16050     16052
     16048     16047     16050     16053     16049     16047     16050     16051
     16049     16047     16050     16052     16049     16047     16050     16053
     16051     16050     16053     16054     16051     16050     16053     16055
     16051     16050     16053     16056     16052     16050     16053     16054
     16052     16050     16053     16055     16052     16050     16053     16056
     16057     16061     16063     16064     16057     16061     16063     16065
     16057     16061     16066     16067     16057     16061     16066     16068
     16057     16061     16066     16072     16058     16057     16061     16062
     16058     16057     16061     16063     16058     16057     16061     16066
     16059     16057     16061     16062     16059     16057     16061     16063
     16059     16057     16061     16066     16060     16057     16061     16062
     16060     16057     16061     16063     16060     16057     16061     16066
     16061     16066     16072     16069     16062     16061     16063     16064
     16062     16061     16063     16065     16062     16061     16066     16067
     16062     16061     16066     16068     16062     16061     16066     16072
     16063     16061     16066     16067     16063     16061     16066     16068
     16063     16061     16066     16072     16064     16063     16061     16066
     16065     16063     16061     16066     16066     16072     16069     16070
     16066     16072     16069     16071     16066     16072     16069     16073
     16067     16066     16072     16069     16068     16066     16072     16069
     16069     16073     16074     16075     16069     16073     16074     16076
     16069     16073     16074     16077     16070     16069     16073     16074
     16071     16069     16073     16074     16072     16069     16073     16074
     16073     16074     16077     16078     16073     16074     16077     16079
     16073     16074     16077     16085     16074     16077     16079     16080
     16074     16077     16085     16086     16074     16077     16085     16087
     16074     16077     16085     16088     16075     16074     16077     16078
     16075     16074     16077     16079     16075     16074     16077     16085
     16076     16074     16077     16078     16076     16074     16077     16079
     16076     16074     16077     16085     16077     16079     16080     16081
     16077     16079     16080     16082     16077     16085     16088     16089
     16078     16077     16079     16080     16078     16077     16085     16086
     16078     16077     16085     16087     16078     16077     16085     16088
     16079     16077     16085     16086     16079     16077     16085     16087
     16079     16077     16085     16088     16079     16080     16082     16083
     16079     16080     16082     16084     16079     16080     16082     16094
     16080     16079     16077     16085     16080     16082     16094     16095
     16080     16082     16094     16096     16080     16082     16094     16097
     16081     16080     16082     16083     16081     16080     16082     16084
     16081     16080     16082     16094     16082     16094     16097     16098
     16082     16094     16097     16099     16082     16094     16097     16100
     16083     16082     16094     16095     16083     16082     16094     16096
     16083     16082     16094     16097     16084     16082     16094     16095
     16084     16082     16094     16096     16084     16082     16094     16097
     16085     16088     16089     16090     16085     16088     16089     16091
     16086     16085     16088     16089     16087     16085     16088     16089
     16088     16089     16091     16092     16088     16089     16091     16093
     16088     16089     16091     16141     16089     16091     16141     16142
     16089     16091     16141     16143     16089     16091     16141     16144
     16090     16089     16091     16092     16090     16089     16091     16093
     16090     16089     16091     16141     16091     16141     16144     16145
     16091     16141     16144     16146     16091     16141     16144     16147
     16092     16091     16141     16142     16092     16091     16141     16143
     16092     16091     16141     16144     16093     16091     16141     16142
     16093     16091     16141     16143     16093     16091     16141     16144
     16094     16097     16100     16101     16094     16097     16100     16102
     16095     16094     16097     16098     16095     16094     16097     16099
     16095     16094     16097     16100     16096     16094     16097     16098
     16096     16094     16097     16099     16096     16094     16097     16100
     16097     16100     16102     16103     16097     16100     16102     16104
     16098     16097     16100     16101     16098     16097     16100     16102
     16099     16097     16100     16101     16099     16097     16100     16102
     16100     16102     16104     16105     16100     16102     16104     16106
     16100     16102     16104     16107     16101     16100     16102     16103
     16101     16100     16102     16104     16102     16104     16107     16108
     16102     16104     16107     16109     16103     16102     16104     16105
     16103     16102     16104     16106     16103     16102     16104     16107
     16104     16107     16109     16110     16104     16107     16109     16111
     16105     16104     16107     16108     16105     16104     16107     16109
     16106     16104     16107     16108     16106     16104     16107     16109
     16107     16109     16111     16112     16107     16109     16111     16113
     16107     16109     16111     16114     16108     16107     16109     16110
     16108     16107     16109     16111     16109     16111     16114     16115
     16109     16111     16114     16116     16110     16109     16111     16112
     16110     16109     16111     16113     16110     16109     16111     16114
     16111     16114     16116     16117     16111     16114     16116     16118
     16112     16111     16114     16115     16112     16111     16114     16116
     16113     16111     16114     16115     16113     16111     16114     16116
     16114     16116     16118     16119     16114     16116     16118     16120
     16114     16116     16118     16121     16115     16114     16116     16117
     16115     16114     16116     16118     16116     16118     16121     16122
     16116     16118     16121     16123     16117     16116     16118     16119
     16117     16116     16118     16120     16117     16116     16118     16121
     16118     16121     16123     16124     16118     16121     16123     16125
     16119     16118     16121     16122     16119     16118     16121     16123
     16120     16118     16121     16122     16120     16118     16121     16123
     16121     16123     16125     16126     16121     16123     16125     16127
     16121     16123     16125     16128     16122     16121     16123     16124
     16122     16121     16123     16125     16123     16125     16128     16129
     16123     16125     16128     16130     16123     16125     16128     16131
     16124     16123     16125     16126     16124     16123     16125     16127
     16124     16123     16125     16128     16125     16128     16131     16132
     16125     16128     16131     16133     16125     16128     16131     16134
     16126     16125     16128     16129     16126     16125     16128     16130
     16126     16125     16128     16131     16127     16125     16128     16129
     16127     16125     16128     16130     16127     16125     16128     16131
     16128     16131     16134     16135     16128     16131     16134     16136
     16128     16131     16134     16137     16129     16128     16131     16132
     16129     16128     16131     16133     16129     16128     16131     16134
     16130     16128     16131     16132     16130     16128     16131     16133
     16130     16128     16131     16134     16131     16134     16137     16138
     16131     16134     16137     16139     16131     16134     16137     16140
     16132     16131     16134     16135     16132     16131     16134     16136
     16132     16131     16134     16137     16133     16131     16134     16135
     16133     16131     16134     16136     16133     16131     16134     16137
     16135     16134     16137     16138     16135     16134     16137     16139
     16135     16134     16137     16140     16136     16134     16137     16138
     16136     16134     16137     16139     16136     16134     16137     16140
     16141     16144     16147     16148     16141     16144     16147     16149
     16141     16144     16147     16150     16142     16141     16144     16145
     16142     16141     16144     16146     16142     16141     16144     16147
     16143     16141     16144     16145     16143     16141     16144     16146
     16143     16141     16144     16147     16144     16147     16150     16151
     16144     16147     16150     16152     16144     16147     16150     16153
     16145     16144     16147     16148     16145     16144     16147     16149
     16145     16144     16147     16150     16146     16144     16147     16148
     16146     16144     16147     16149     16146     16144     16147     16150
     16147     16150     16153     16154     16147     16150     16153     16155
     16147     16150     16153     16156     16148     16147     16150     16151
     16148     16147     16150     16152     16148     16147     16150     16153
     16149     16147     16150     16151     16149     16147     16150     16152
     16149     16147     16150     16153     16150     16153     16156     16157
     16150     16153     16156     16158     16150     16153     16156     16159
     16151     16150     16153     16154     16151     16150     16153     16155
     16151     16150     16153     16156     16152     16150     16153     16154
     16152     16150     16153     16155     16152     16150     16153     16156
     16153     16156     16159     16160     16153     16156     16159     16161
     16153     16156     16159     16162     16154     16153     16156     16157
     16154     16153     16156     16158     16154     16153     16156     16159
     16155     16153     16156     16157     16155     16153     16156     16158
     16155     16153     16156     16159     16156     16159     16162     16163
     16156     16159     16162     16164     16156     16159     16162     16165
     16157     16156     16159     16160     16157     16156     16159     16161
     16157     16156     16159     16162     16158     16156     16159     16160
     16158     16156     16159     16161     16158     16156     16159     16162
     16159     16162     16165     16166     16159     16162     16165     16167
     16159     16162     16165     16168     16160     16159     16162     16163
     16160     16159     16162     16164     16160     16159     16162     16165
     16161     16159     16162     16163     16161     16159     16162     16164
     16161     16159     16162     16165     16162     16165     16168     16169
     16162     16165     16168     16170     16162     16165     16168     16171
     16163     16162     16165     16166     16163     16162     16165     16167
     16163     16162     16165     16168     16164     16162     16165     16166
     16164     16162     16165     16167     16164     16162     16165     16168
     16165     16168     16171     16172     16165     16168     16171     16173
     16165     16168     16171     16174     16166     16165     16168     16169
     16166     16165     16168     16170     16166     16165     16168     16171
     16167     16165     16168     16169     16167     16165     16168     16170
     16167     16165     16168     16171     16168     16171     16174     16175
     16168     16171     16174     16176     16168     16171     16174     16177
     16169     16168     16171     16172     16169     16168     16171     16173
     16169     16168     16171     16174     16170     16168     16171     16172
     16170     16168     16171     16173     16170     16168     16171     16174
     16171     16174     16177     16178     16171     16174     16177     16179
     16171     16174     16177     16180     16172     16171     16174     16175
     16172     16171     16174     16176     16172     16171     16174     16177
     16173     16171     16174     16175     16173     16171     16174     16176
     16173     16171     16174     16177     16174     16177     16180     16181
     16174     16177     16180     16182     16174     16177     16180     16183
     16175     16174     16177     16178     16175     16174     16177     16179
     16175     16174     16177     16180     16176     16174     16177     16178
     16176     16174     16177     16179     16176     16174     16177     16180
     16177     16180     16183     16184     16177     16180     16183     16185
     16177     16180     16183     16186     16178     16177     16180     16181
     16178     16177     16180     16182     16178     16177     16180     16183
     16179     16177     16180     16181     16179     16177     16180     16182
     16179     16177     16180     16183     16180     16183     16186     16187
     16180     16183     16186     16188     16180     16183     16186     16189
     16181     16180     16183     16184     16181     16180     16183     16185
     16181     16180     16183     16186     16182     16180     16183     16184
     16182     16180     16183     16185     16182     16180     16183     16186
     16184     16183     16186     16187     16184     16183     16186     16188
     16184     16183     16186     16189     16185     16183     16186     16187
     16185     16183     16186     16188     16185     16183     16186     16189
     16190     16194     16197     16198     16190     16194     16197     16228
     16190     16236     16233     16228     16190     16236     16233     16234
     16190     16236     16233     16235     16191     16190     16192     16193
     16191     16190     16194     16195     16191     16190     16194     16196
     16191     16190     16194     16197     16191     16190     16236     16233
     16191     16190     16236     16237     16191     16190     16236     16238
     16192     16190     16194     16195     16192     16190     16194     16196
     16192     16190     16194     16197     16192     16190     16236     16233
     16192     16190     16236     16237     16192     16190     16236     16238
     16193     16192     16190     16194     16193     16192     16190     16236
     16194     16190     16236     16233     16194     16190     16236     16237
     16194     16190     16236     16238     16194     16197     16198     16199
     16194     16197     16198     16200     16194     16197     16228     16226
     16194     16197     16228     16229     16194     16197     16228     16233
     16195     16194     16190     16236     16195     16194     16197     16198
     16195     16194     16197     16228     16196     16194     16190     16236
     16196     16194     16197     16198     16196     16194     16197     16228
     16197     16194     16190     16236     16197     16198     16200     16201
     16197     16198     16200     16202     16197     16198     16200     16203
     16197     16228     16226     16203     16197     16228     16226     16223
     16197     16228     16226     16227     16197     16228     16229     16230
     16197     16228     16229     16231     16197     16228     16229     16232
     16197     16228     16233     16234     16197     16228     16233     16235
     16197     16228     16233     16236     16198     16197     16228     16226
     16198     16197     16228     16229     16198     16197     16228     16233
     16198     16200     16203     16204     16198     16200     16203     16205
     16198     16200     16203     16226     16199     16198     16197     16228
     16199     16198     16200     16201     16199     16198     16200     16202
     16199     16198     16200     16203     16200     16198     16197     16228
     16200     16203     16205     16206     16200     16203     16205     16207
     16200     16203     16205     16215     16200     16203     16226     16223
     16200     16203     16226     16227     16200     16203     16226     16228
     16201     16200     16203     16204     16201     16200     16203     16205
     16201     16200     16203     16226     16202     16200     16203     16204
     16202     16200     16203     16205     16202     16200     16203     16226
     16203     16205     16207     16208     16203     16205     16207     16209
     16203     16205     16207     16210     16203     16205     16215     16213
     16203     16205     16215     16216     16203     16205     16215     16220
     16203     16226     16223     16220     16203     16226     16223     16224
     16203     16226     16223     16225     16203     16226     16228     16229
     16203     16226     16228     16233     16204     16203     16205     16206
     16204     16203     16205     16207     16204     16203     16205     16215
     16204     16203     16226     16223     16204     16203     16226     16227
     16204     16203     16226     16228     16205     16203     16226     16223
     16205     16203     16226     16227     16205     16203     16226     16228
     16205     16207     16210     16211     16205     16207     16210     16212
     16205     16207     16210     16213     16205     16215     16213     16210
     16205     16215     16213     16214     16205     16215     16213     16239
     16205     16215     16216     16217     16205     16215     16216     16218
     16205     16215     16216     16219     16205     16215     16220     16221
     16205     16215     16220     16222     16205     16215     16220     16223
     16206     16205     16203     16226     16206     16205     16207     16208
     16206     16205     16207     16209     16206     16205     16207     16210
     16206     16205     16215     16213     16206     16205     16215     16216
     16206     16205     16215     16220     16207     16205     16203     16226
     16207     16205     16215     16213     16207     16205     16215     16216
     16207     16205     16215     16220     16207     16210     16213     16214
     16207     16210     16213     16215     16207     16210     16213     16239
     16208     16207     16205     16215     16208     16207     16210     16211
     16208     16207     16210     16212     16208     16207     16210     16213
     16209     16207     16205     16215     16209     16207     16210     16211
     16209     16207     16210     16212     16209     16207     16210     16213
     16210     16207     16205     16215     16210     16213     16215     16216
     16210     16213     16215     16220     16210     16213     16239     16240
     16210     16213     16239     16241     16210     16213     16239     16245
     16211     16210     16213     16214     16211     16210     16213     16215
     16211     16210     16213     16239     16212     16210     16213     16214
     16212     16210     16213     16215     16212     16210     16213     16239
     16213     16215     16216     16217     16213     16215     16216     16218
     16213     16215     16216     16219     16213     16215     16220     16221
     16213     16215     16220     16222     16213     16215     16220     16223
     16213     16239     16241     16242     16213     16239     16241     16243
     16213     16239     16241     16244     16213     16239     16245     16246
     16213     16239     16245     16247     16213     16239     16245     16248
     16214     16213     16215     16216     16214     16213     16215     16220
     16214     16213     16239     16240     16214     16213     16239     16241
     16214     16213     16239     16245     16215     16205     16203     16226
     16215     16213     16239     16240     16215     16213     16239     16241
     16215     16213     16239     16245     16215     16220     16223     16224
     16215     16220     16223     16225     16215     16220     16223     16226
     16216     16215     16213     16239     16216     16215     16220     16221
     16216     16215     16220     16222     16216     16215     16220     16223
     16217     16216     16215     16220     16218     16216     16215     16220
     16219     16216     16215     16220     16220     16215     16213     16239
     16220     16223     16226     16227     16220     16223     16226     16228
     16221     16220     16223     16224     16221     16220     16223     16225
     16221     16220     16223     16226     16222     16220     16223     16224
     16222     16220     16223     16225     16222     16220     16223     16226
     16223     16226     16228     16229     16223     16226     16228     16233
     16224     16223     16226     16227     16224     16223     16226     16228
     16225     16223     16226     16227     16225     16223     16226     16228
     16226     16228     16229     16230     16226     16228     16229     16231
     16226     16228     16229     16232     16226     16228     16233     16234
     16226     16228     16233     16235     16226     16228     16233     16236
     16227     16226     16228     16229     16227     16226     16228     16233
     16228     16233     16236     16237     16228     16233     16236     16238
     16229     16228     16233     16234     16229     16228     16233     16235
     16229     16228     16233     16236     16230     16229     16228     16233
     16231     16229     16228     16233     16232     16229     16228     16233
     16234     16233     16236     16237     16234     16233     16236     16238
     16235     16233     16236     16237     16235     16233     16236     16238
     16239     16245     16248     16249     16239     16245     16248     16250
     16239     16245     16248     16251     16240     16239     16241     16242
     16240     16239     16241     16243     16240     16239     16241     16244
     16240     16239     16245     16246     16240     16239     16245     16247
     16240     16239     16245     16248     16241     16239     16245     16246
     16241     16239     16245     16247     16241     16239     16245     16248
     16242     16241     16239     16245     16243     16241     16239     16245
     16244     16241     16239     16245     16245     16248     16251     16252
     16245     16248     16251     16253     16245     16248     16251     16254
     16246     16245     16248     16249     16246     16245     16248     16250
     16246     16245     16248     16251     16247     16245     16248     16249
     16247     16245     16248     16250     16247     16245     16248     16251
     16248     16251     16254     16255     16248     16251     16254     16256
     16248     16251     16254     16260     16249     16248     16251     16252
     16249     16248     16251     16253     16249     16248     16251     16254
     16250     16248     16251     16252     16250     16248     16251     16253
     16250     16248     16251     16254     16251     16254     16256     16257
     16251     16254     16256     16258     16251     16254     16256     16259
     16251     16254     16260     16261     16251     16254     16260     16262
     16251     16254     16260     16263     16252     16251     16254     16255
     16252     16251     16254     16256     16252     16251     16254     16260
     16253     16251     16254     16255     16253     16251     16254     16256
     16253     16251     16254     16260     16255     16254     16256     16257
     16255     16254     16256     16258     16255     16254     16256     16259
     16255     16254     16260     16261     16255     16254     16260     16262
     16255     16254     16260     16263     16256     16254     16260     16261
     16256     16254     16260     16262     16256     16254     16260     16263
     16257     16256     16254     16260     16258     16256     16254     16260
     16259     16256     16254     16260     16264     16277     16280     16281
     16264     16277     16280     16282     16264     16277     16280     16287
     16265     16264     16269     16270     16265     16264     16269     16271
     16265     16264     16269     16272     16265     16264     16273     16274
     16265     16264     16273     16275     16265     16264     16273     16276
     16265     16264     16277     16278     16265     16264     16277     16279
     16265     16264     16277     16280     16266     16265     16264     16269
     16266     16265     16264     16273     16266     16265     16264     16277
     16267     16265     16264     16269     16267     16265     16264     16273
     16267     16265     16264     16277     16268     16265     16264     16269
     16268     16265     16264     16273     16268     16265     16264     16277
     16269     16264     16273     16274     16269     16264     16273     16275
     16269     16264     16273     16276     16269     16264     16277     16278
     16269     16264     16277     16279     16269     16264     16277     16280
     16270     16269     16264     16273     16270     16269     16264     16277
     16271     16269     16264     16273     16271     16269     16264     16277
     16272     16269     16264     16273     16272     16269     16264     16277
     16273     16264     16277     16278     16273     16264     16277     16279
     16273     16264     16277     16280     16274     16273     16264     16277
     16275     16273     16264     16277     16276     16273     16264     16277
     16277     16280     16287     16283     16278     16277     16280     16281
     16278     16277     16280     16282     16278     16277     16280     16287
     16279     16277     16280     16281     16279     16277     16280     16282
     16279     16277     16280     16287     16280     16287     16283     16284
     16280     16287     16283     16285     16280     16287     16283     16286
     16281     16280     16287     16283     16282     16280     16287     16283
     16283     16286     16288     16289     16283     16286     16288     16290
     16283     16286     16288     16293     16284     16283     16286     16288
     16285     16283     16286     16288     16286     16288     16293     16291
     16286     16288     16293     16294     16286     16288     16293     16295
     16287     16283     16286     16288     16288     16293     16291     16292
     16288     16293     16291     16343     16288     16293     16295     16296
     16288     16293     16295     16297     16288     16293     16295     16299
     16289     16288     16293     16291     16289     16288     16293     16294
     16289     16288     16293     16295     16290     16288     16293     16291
     16290     16288     16293     16294     16290     16288     16293     16295
     16291     16293     16295     16296     16291     16293     16295     16297
     16291     16293     16295     16299     16291     16343     16345     16346
     16291     16343     16345     16347     16291     16343     16345     16348
     16292     16291     16293     16294     16292     16291     16293     16295
     16292     16291     16343     16344     16292     16291     16343     16345
     16293     16291     16343     16344     16293     16291     16343     16345
     16293     16295     16297     16298     16293     16295     16299     16300
     16293     16295     16299     16301     16294     16293     16291     16343
     16294     16293     16295     16296     16294     16293     16295     16297
     16294     16293     16295     16299     16295     16293     16291     16343
     16295     16299     16301     16302     16295     16299     16301     16303
     16296     16295     16297     16298     16296     16295     16299     16300
     16296     16295     16299     16301     16297     16295     16299     16300
     16297     16295     16299     16301     16298     16297     16295     16299
     16299     16301     16303     16304     16299     16301     16303     16305
     16299     16301     16303     16306     16300     16299     16301     16302
     16300     16299     16301     16303     16301     16303     16306     16307
     16301     16303     16306     16308     16301     16303     16306     16309
     16302     16301     16303     16304     16302     16301     16303     16305
     16302     16301     16303     16306     16303     16306     16309     16310
     16303     16306     16309     16311     16303     16306     16309     16312
     16304     16303     16306     16307     16304     16303     16306     16308
     16304     16303     16306     16309     16305     16303     16306     16307
     16305     16303     16306     16308     16305     16303     16306     16309
     16306     16309     16312     16313     16306     16309     16312     16314
     16306     16309     16312     16315     16307     16306     16309     16310
     16307     16306     16309     16311     16307     16306     16309     16312
     16308     16306     16309     16310     16308     16306     16309     16311
     16308     16306     16309     16312     16309     16312     16315     16316
     16309     16312     16315     16317     16309     16312     16315     16318
     16310     16309     16312     16313     16310     16309     16312     16314
     16310     16309     16312     16315     16311     16309     16312     16313
     16311     16309     16312     16314     16311     16309     16312     16315
     16312     16315     16318     16319     16312     16315     16318     16320
     16312     16315     16318     16321     16313     16312     16315     16316
     16313     16312     16315     16317     16313     16312     16315     16318
     16314     16312     16315     16316     16314     16312     16315     16317
     16314     16312     16315     16318     16315     16318     16321     16322
     16315     16318     16321     16323     16315     16318     16321     16324
     16316     16315     16318     16319     16316     16315     16318     16320
     16316     16315     16318     16321     16317     16315     16318     16319
     16317     16315     16318     16320     16317     16315     16318     16321
     16318     16321     16324     16325     16318     16321     16324     16326
     16318     16321     16324     16327     16319     16318     16321     16322
     16319     16318     16321     16323     16319     16318     16321     16324
     16320     16318     16321     16322     16320     16318     16321     16323
     16320     16318     16321     16324     16321     16324     16327     16328
     16321     16324     16327     16329     16321     16324     16327     16330
     16322     16321     16324     16325     16322     16321     16324     16326
     16322     16321     16324     16327     16323     16321     16324     16325
     16323     16321     16324     16326     16323     16321     16324     16327
     16324     16327     16330     16331     16324     16327     16330     16332
     16324     16327     16330     16333     16325     16324     16327     16328
     16325     16324     16327     16329     16325     16324     16327     16330
     16326     16324     16327     16328     16326     16324     16327     16329
     16326     16324     16327     16330     16327     16330     16333     16334
     16327     16330     16333     16335     16327     16330     16333     16336
     16328     16327     16330     16331     16328     16327     16330     16332
     16328     16327     16330     16333     16329     16327     16330     16331
     16329     16327     16330     16332     16329     16327     16330     16333
     16330     16333     16336     16337     16330     16333     16336     16338
     16330     16333     16336     16339     16331     16330     16333     16334
     16331     16330     16333     16335     16331     16330     16333     16336
     16332     16330     16333     16334     16332     16330     16333     16335
     16332     16330     16333     16336     16333     16336     16339     16340
     16333     16336     16339     16341     16333     16336     16339     16342
     16334     16333     16336     16337     16334     16333     16336     16338
     16334     16333     16336     16339     16335     16333     16336     16337
     16335     16333     16336     16338     16335     16333     16336     16339
     16337     16336     16339     16340     16337     16336     16339     16341
     16337     16336     16339     16342     16338     16336     16339     16340
     16338     16336     16339     16341     16338     16336     16339     16342
     16343     16345     16348     16349     16343     16345     16348     16350
     16343     16345     16348     16351     16344     16343     16345     16346
     16344     16343     16345     16347     16344     16343     16345     16348
     16345     16348     16351     16352     16345     16348     16351     16353
     16345     16348     16351     16354     16346     16345     16348     16349
     16346     16345     16348     16350     16346     16345     16348     16351
     16347     16345     16348     16349     16347     16345     16348     16350
     16347     16345     16348     16351     16348     16351     16354     16355
     16348     16351     16354     16356     16348     16351     16354     16357
     16349     16348     16351     16352     16349     16348     16351     16353
     16349     16348     16351     16354     16350     16348     16351     16352
     16350     16348     16351     16353     16350     16348     16351     16354
     16351     16354     16357     16358     16351     16354     16357     16359
     16351     16354     16357     16360     16352     16351     16354     16355
     16352     16351     16354     16356     16352     16351     16354     16357
     16353     16351     16354     16355     16353     16351     16354     16356
     16353     16351     16354     16357     16354     16357     16360     16361
     16354     16357     16360     16362     16354     16357     16360     16363
     16355     16354     16357     16358     16355     16354     16357     16359
     16355     16354     16357     16360     16356     16354     16357     16358
     16356     16354     16357     16359     16356     16354     16357     16360
     16357     16360     16363     16364     16357     16360     16363     16365
     16357     16360     16363     16366     16358     16357     16360     16361
     16358     16357     16360     16362     16358     16357     16360     16363
     16359     16357     16360     16361     16359     16357     16360     16362
     16359     16357     16360     16363     16360     16363     16366     16367
     16360     16363     16366     16368     16361     16360     16363     16364
     16361     16360     16363     16365     16361     16360     16363     16366
     16362     16360     16363     16364     16362     16360     16363     16365
     16362     16360     16363     16366     16363     16366     16368     16369
     16363     16366     16368     16370     16364     16363     16366     16367
     16364     16363     16366     16368     16365     16363     16366     16367
     16365     16363     16366     16368     16366     16368     16370     16371
     16366     16368     16370     16372     16366     16368     16370     16373
     16367     16366     16368     16369     16367     16366     16368     16370
     16368     16370     16373     16374     16368     16370     16373     16375
     16368     16370     16373     16376     16369     16368     16370     16371
     16369     16368     16370     16372     16369     16368     16370     16373
     16370     16373     16376     16377     16370     16373     16376     16378
     16370     16373     16376     16379     16371     16370     16373     16374
     16371     16370     16373     16375     16371     16370     16373     16376
     16372     16370     16373     16374     16372     16370     16373     16375
     16372     16370     16373     16376     16373     16376     16379     16380
     16373     16376     16379     16381     16373     16376     16379     16382
     16374     16373     16376     16377     16374     16373     16376     16378
     16374     16373     16376     16379     16375     16373     16376     16377
     16375     16373     16376     16378     16375     16373     16376     16379
     16376     16379     16382     16383     16376     16379     16382     16384
     16376     16379     16382     16385     16377     16376     16379     16380
     16377     16376     16379     16381     16377     16376     16379     16382
     16378     16376     16379     16380     16378     16376     16379     16381
     16378     16376     16379     16382     16379     16382     16385     16386
     16379     16382     16385     16387     16379     16382     16385     16388
     16380     16379     16382     16383     16380     16379     16382     16384
     16380     16379     16382     16385     16381     16379     16382     16383
     16381     16379     16382     16384     16381     16379     16382     16385
     16382     16385     16388     16389     16382     16385     16388     16390
     16382     16385     16388     16391     16383     16382     16385     16386
     16383     16382     16385     16387     16383     16382     16385     16388
     16384     16382     16385     16386     16384     16382     16385     16387
     16384     16382     16385     16388     16385     16388     16391     16392
     16385     16388     16391     16393     16385     16388     16391     16394
     16386     16385     16388     16389     16386     16385     16388     16390
     16386     16385     16388     16391     16387     16385     16388     16389
     16387     16385     16388     16390     16387     16385     16388     16391
     16389     16388     16391     16392     16389     16388     16391     16393
     16389     16388     16391     16394     16390     16388     16391     16392
     16390     16388     16391     16393     16390     16388     16391     16394
     16395     16399     16402     16403     16395     16399     16402     16404
     16395     16399     16402     16408     16396     16395     16399     16400
     16396     16395     16399     16401     16396     16395     16399     16402
     16397     16395     16399     16400     16397     16395     16399     16401
     16397     16395     16399     16402     16398     16395     16399     16400
     16398     16395     16399     16401     16398     16395     16399     16402
     16399     16402     16408     16405     16400     16399     16402     16403
     16400     16399     16402     16404     16400     16399     16402     16408
     16401     16399     16402     16403     16401     16399     16402     16404
     16401     16399     16402     16408     16402     16408     16405     16406
     16402     16408     16405     16407     16402     16408     16405     16409
     16403     16402     16408     16405     16404     16402     16408     16405
     16405     16409     16410     16411     16405     16409     16410     16412
     16405     16409     16410     16413     16406     16405     16409     16410
     16407     16405     16409     16410     16408     16405     16409     16410
     16409     16410     16413     16414     16409     16410     16413     16415
     16409     16410     16413     16421     16410     16413     16415     16416
     16410     16413     16421     16422     16410     16413     16421     16423
     16410     16413     16421     16424     16411     16410     16413     16414
     16411     16410     16413     16415     16411     16410     16413     16421
     16412     16410     16413     16414     16412     16410     16413     16415
     16412     16410     16413     16421     16413     16415     16416     16417
     16413     16415     16416     16418     16413     16421     16424     16425
     16414     16413     16415     16416     16414     16413     16421     16422
     16414     16413     16421     16423     16414     16413     16421     16424
     16415     16413     16421     16422     16415     16413     16421     16423
     16415     16413     16421     16424     16415     16416     16418     16419
     16415     16416     16418     16420     16415     16416     16418     16430
     16416     16415     16413     16421     16416     16418     16430     16431
     16416     16418     16430     16432     16416     16418     16430     16433
     16417     16416     16418     16419     16417     16416     16418     16420
     16417     16416     16418     16430     16418     16430     16433     16434
     16418     16430     16433     16435     16418     16430     16433     16436
     16419     16418     16430     16431     16419     16418     16430     16432
     16419     16418     16430     16433     16420     16418     16430     16431
     16420     16418     16430     16432     16420     16418     16430     16433
     16421     16424     16425     16426     16421     16424     16425     16427
     16422     16421     16424     16425     16423     16421     16424     16425
     16424     16425     16427     16428     16424     16425     16427     16429
     16424     16425     16427     16477     16425     16427     16477     16478
     16425     16427     16477     16479     16425     16427     16477     16480
     16426     16425     16427     16428     16426     16425     16427     16429
     16426     16425     16427     16477     16427     16477     16480     16481
     16427     16477     16480     16482     16427     16477     16480     16483
     16428     16427     16477     16478     16428     16427     16477     16479
     16428     16427     16477     16480     16429     16427     16477     16478
     16429     16427     16477     16479     16429     16427     16477     16480
     16430     16433     16436     16437     16430     16433     16436     16438
     16431     16430     16433     16434     16431     16430     16433     16435
     16431     16430     16433     16436     16432     16430     16433     16434
     16432     16430     16433     16435     16432     16430     16433     16436
     16433     16436     16438     16439     16433     16436     16438     16440
     16434     16433     16436     16437     16434     16433     16436     16438
     16435     16433     16436     16437     16435     16433     16436     16438
     16436     16438     16440     16441     16436     16438     16440     16442
     16436     16438     16440     16443     16437     16436     16438     16439
     16437     16436     16438     16440     16438     16440     16443     16444
     16438     16440     16443     16445     16439     16438     16440     16441
     16439     16438     16440     16442     16439     16438     16440     16443
     16440     16443     16445     16446     16440     16443     16445     16447
     16441     16440     16443     16444     16441     16440     16443     16445
     16442     16440     16443     16444     16442     16440     16443     16445
     16443     16445     16447     16448     16443     16445     16447     16449
     16443     16445     16447     16450     16444     16443     16445     16446
     16444     16443     16445     16447     16445     16447     16450     16451
     16445     16447     16450     16452     16446     16445     16447     16448
     16446     16445     16447     16449     16446     16445     16447     16450
     16447     16450     16452     16453     16447     16450     16452     16454
     16448     16447     16450     16451     16448     16447     16450     16452
     16449     16447     16450     16451     16449     16447     16450     16452
     16450     16452     16454     16455     16450     16452     16454     16456
     16450     16452     16454     16457     16451     16450     16452     16453
     16451     16450     16452     16454     16452     16454     16457     16458
     16452     16454     16457     16459     16453     16452     16454     16455
     16453     16452     16454     16456     16453     16452     16454     16457
     16454     16457     16459     16460     16454     16457     16459     16461
     16455     16454     16457     16458     16455     16454     16457     16459
     16456     16454     16457     16458     16456     16454     16457     16459
     16457     16459     16461     16462     16457     16459     16461     16463
     16457     16459     16461     16464     16458     16457     16459     16460
     16458     16457     16459     16461     16459     16461     16464     16465
     16459     16461     16464     16466     16459     16461     16464     16467
     16460     16459     16461     16462     16460     16459     16461     16463
     16460     16459     16461     16464     16461     16464     16467     16468
     16461     16464     16467     16469     16461     16464     16467     16470
     16462     16461     16464     16465     16462     16461     16464     16466
     16462     16461     16464     16467     16463     16461     16464     16465
     16463     16461     16464     16466     16463     16461     16464     16467
     16464     16467     16470     16471     16464     16467     16470     16472
     16464     16467     16470     16473     16465     16464     16467     16468
     16465     16464     16467     16469     16465     16464     16467     16470
     16466     16464     16467     16468     16466     16464     16467     16469
     16466     16464     16467     16470     16467     16470     16473     16474
     16467     16470     16473     16475     16467     16470     16473     16476
     16468     16467     16470     16471     16468     16467     16470     16472
     16468     16467     16470     16473     16469     16467     16470     16471
     16469     16467     16470     16472     16469     16467     16470     16473
     16471     16470     16473     16474     16471     16470     16473     16475
     16471     16470     16473     16476     16472     16470     16473     16474
     16472     16470     16473     16475     16472     16470     16473     16476
     16477     16480     16483     16484     16477     16480     16483     16485
     16477     16480     16483     16486     16478     16477     16480     16481
     16478     16477     16480     16482     16478     16477     16480     16483
     16479     16477     16480     16481     16479     16477     16480     16482
     16479     16477     16480     16483     16480     16483     16486     16487
     16480     16483     16486     16488     16480     16483     16486     16489
     16481     16480     16483     16484     16481     16480     16483     16485
     16481     16480     16483     16486     16482     16480     16483     16484
     16482     16480     16483     16485     16482     16480     16483     16486
     16483     16486     16489     16490     16483     16486     16489     16491
     16483     16486     16489     16492     16484     16483     16486     16487
     16484     16483     16486     16488     16484     16483     16486     16489
     16485     16483     16486     16487     16485     16483     16486     16488
     16485     16483     16486     16489     16486     16489     16492     16493
     16486     16489     16492     16494     16486     16489     16492     16495
     16487     16486     16489     16490     16487     16486     16489     16491
     16487     16486     16489     16492     16488     16486     16489     16490
     16488     16486     16489     16491     16488     16486     16489     16492
     16489     16492     16495     16496     16489     16492     16495     16497
     16489     16492     16495     16498     16490     16489     16492     16493
     16490     16489     16492     16494     16490     16489     16492     16495
     16491     16489     16492     16493     16491     16489     16492     16494
     16491     16489     16492     16495     16492     16495     16498     16499
     16492     16495     16498     16500     16492     16495     16498     16501
     16493     16492     16495     16496     16493     16492     16495     16497
     16493     16492     16495     16498     16494     16492     16495     16496
     16494     16492     16495     16497     16494     16492     16495     16498
     16495     16498     16501     16502     16495     16498     16501     16503
     16495     16498     16501     16504     16496     16495     16498     16499
     16496     16495     16498     16500     16496     16495     16498     16501
     16497     16495     16498     16499     16497     16495     16498     16500
     16497     16495     16498     16501     16498     16501     16504     16505
     16498     16501     16504     16506     16498     16501     16504     16507
     16499     16498     16501     16502     16499     16498     16501     16503
     16499     16498     16501     16504     16500     16498     16501     16502
     16500     16498     16501     16503     16500     16498     16501     16504
     16501     16504     16507     16508     16501     16504     16507     16509
     16501     16504     16507     16510     16502     16501     16504     16505
     16502     16501     16504     16506     16502     16501     16504     16507
     16503     16501     16504     16505     16503     16501     16504     16506
     16503     16501     16504     16507     16504     16507     16510     16511
     16504     16507     16510     16512     16504     16507     16510     16513
     16505     16504     16507     16508     16505     16504     16507     16509
     16505     16504     16507     16510     16506     16504     16507     16508
     16506     16504     16507     16509     16506     16504     16507     16510
     16507     16510     16513     16514     16507     16510     16513     16515
     16507     16510     16513     16516     16508     16507     16510     16511
     16508     16507     16510     16512     16508     16507     16510     16513
     16509     16507     16510     16511     16509     16507     16510     16512
     16509     16507     16510     16513     16510     16513     16516     16517
     16510     16513     16516     16518     16510     16513     16516     16519
     16511     16510     16513     16514     16511     16510     16513     16515
     16511     16510     16513     16516     16512     16510     16513     16514
     16512     16510     16513     16515     16512     16510     16513     16516
     16513     16516     16519     16520     16513     16516     16519     16521
     16513     16516     16519     16522     16514     16513     16516     16517
     16514     16513     16516     16518     16514     16513     16516     16519
     16515     16513     16516     16517     16515     16513     16516     16518
     16515     16513     16516     16519     16516     16519     16522     16523
     16516     16519     16522     16524     16516     16519     16522     16525
     16517     16516     16519     16520     16517     16516     16519     16521
     16517     16516     16519     16522     16518     16516     16519     16520
     16518     16516     16519     16521     16518     16516     16519     16522
     16520     16519     16522     16523     16520     16519     16522     16524
     16520     16519     16522     16525     16521     16519     16522     16523
     16521     16519     16522     16524     16521     16519     16522     16525
     16526     16539     16542     16543     16526     16539     16542     16544
     16526     16539     16542     16548     16527     16526     16531     16532
     16527     16526     16531     16533     16527     16526     16531     16534
     16527     16526     16535     16536     16527     16526     16535     16537
     16527     16526     16535     16538     16527     16526     16539     16540
     16527     16526     16539     16541     16527     16526     16539     16542
     16528     16527     16526     16531     16528     16527     16526     16535
     16528     16527     16526     16539     16529     16527     16526     16531
     16529     16527     16526     16535     16529     16527     16526     16539
     16530     16527     16526     16531     16530     16527     16526     16535
     16530     16527     16526     16539     16531     16526     16535     16536
     16531     16526     16535     16537     16531     16526     16535     16538
     16531     16526     16539     16540     16531     16526     16539     16541
     16531     16526     16539     16542     16532     16531     16526     16535
     16532     16531     16526     16539     16533     16531     16526     16535
     16533     16531     16526     16539     16534     16531     16526     16535
     16534     16531     16526     16539     16535     16526     16539     16540
     16535     16526     16539     16541     16535     16526     16539     16542
     16536     16535     16526     16539     16537     16535     16526     16539
     16538     16535     16526     16539     16539     16542     16548     16545
     16540     16539     16542     16543     16540     16539     16542     16544
     16540     16539     16542     16548     16541     16539     16542     16543
     16541     16539     16542     16544     16541     16539     16542     16548
     16542     16548     16545     16546     16542     16548     16545     16547
     16542     16548     16545     16549     16543     16542     16548     16545
     16544     16542     16548     16545     16545     16549     16550     16551
     16545     16549     16550     16552     16545     16549     16550     16553
     16546     16545     16549     16550     16547     16545     16549     16550
     16548     16545     16549     16550     16549     16550     16553     16554
     16549     16550     16553     16555     16549     16550     16553     16561
     16550     16553     16555     16556     16550     16553     16561     16562
     16550     16553     16561     16563     16550     16553     16561     16564
     16551     16550     16553     16554     16551     16550     16553     16555
     16551     16550     16553     16561     16552     16550     16553     16554
     16552     16550     16553     16555     16552     16550     16553     16561
     16553     16555     16556     16557     16553     16555     16556     16558
     16553     16561     16564     16565     16554     16553     16555     16556
     16554     16553     16561     16562     16554     16553     16561     16563
     16554     16553     16561     16564     16555     16553     16561     16562
     16555     16553     16561     16563     16555     16553     16561     16564
     16555     16556     16558     16559     16555     16556     16558     16560
     16555     16556     16558     16570     16556     16555     16553     16561
     16556     16558     16570     16571     16556     16558     16570     16572
     16556     16558     16570     16573     16557     16556     16558     16559
     16557     16556     16558     16560     16557     16556     16558     16570
     16558     16570     16573     16574     16558     16570     16573     16575
     16558     16570     16573     16576     16559     16558     16570     16571
     16559     16558     16570     16572     16559     16558     16570     16573
     16560     16558     16570     16571     16560     16558     16570     16572
     16560     16558     16570     16573     16561     16564     16565     16566
     16561     16564     16565     16567     16562     16561     16564     16565
     16563     16561     16564     16565     16564     16565     16567     16568
     16564     16565     16567     16569     16564     16565     16567     16615
     16565     16567     16615     16616     16565     16567     16615     16617
     16565     16567     16615     16618     16566     16565     16567     16568
     16566     16565     16567     16569     16566     16565     16567     16615
     16567     16615     16618     16619     16567     16615     16618     16620
     16567     16615     16618     16621     16568     16567     16615     16616
     16568     16567     16615     16617     16568     16567     16615     16618
     16569     16567     16615     16616     16569     16567     16615     16617
     16569     16567     16615     16618     16570     16573     16576     16577
     16570     16573     16576     16578     16570     16573     16576     16579
     16571     16570     16573     16574     16571     16570     16573     16575
     16571     16570     16573     16576     16572     16570     16573     16574
     16572     16570     16573     16575     16572     16570     16573     16576
     16573     16576     16579     16580     16573     16576     16579     16581
     16573     16576     16579     16582     16574     16573     16576     16577
     16574     16573     16576     16578     16574     16573     16576     16579
     16575     16573     16576     16577     16575     16573     16576     16578
     16575     16573     16576     16579     16576     16579     16582     16583
     16576     16579     16582     16584     16576     16579     16582     16585
     16577     16576     16579     16580     16577     16576     16579     16581
     16577     16576     16579     16582     16578     16576     16579     16580
     16578     16576     16579     16581     16578     16576     16579     16582
     16579     16582     16585     16586     16579     16582     16585     16587
     16579     16582     16585     16588     16580     16579     16582     16583
     16580     16579     16582     16584     16580     16579     16582     16585
     16581     16579     16582     16583     16581     16579     16582     16584
     16581     16579     16582     16585     16582     16585     16588     16589
     16582     16585     16588     16590     16583     16582     16585     16586
     16583     16582     16585     16587     16583     16582     16585     16588
     16584     16582     16585     16586     16584     16582     16585     16587
     16584     16582     16585     16588     16585     16588     16590     16591
     16585     16588     16590     16592     16586     16585     16588     16589
     16586     16585     16588     16590     16587     16585     16588     16589
     16587     16585     16588     16590     16588     16590     16592     16593
     16588     16590     16592     16594     16588     16590     16592     16595
     16589     16588     16590     16591     16589     16588     16590     16592
     16590     16592     16595     16596     16590     16592     16595     16597
     16591     16590     16592     16593     16591     16590     16592     16594
     16591     16590     16592     16595     16592     16595     16597     16598
     16592     16595     16597     16599     16593     16592     16595     16596
     16593     16592     16595     16597     16594     16592     16595     16596
     16594     16592     16595     16597     16595     16597     16599     16600
     16595     16597     16599     16601     16595     16597     16599     16602
     16596     16595     16597     16598     16596     16595     16597     16599
     16597     16599     16602     16603     16597     16599     16602     16604
     16597     16599     16602     16605     16598     16597     16599     16600
     16598     16597     16599     16601     16598     16597     16599     16602
     16599     16602     16605     16606     16599     16602     16605     16607
     16599     16602     16605     16608     16600     16599     16602     16603
     16600     16599     16602     16604     16600     16599     16602     16605
     16601     16599     16602     16603     16601     16599     16602     16604
     16601     16599     16602     16605     16602     16605     16608     16609
     16602     16605     16608     16610     16602     16605     16608     16611
     16603     16602     16605     16606     16603     16602     16605     16607
     16603     16602     16605     16608     16604     16602     16605     16606
     16604     16602     16605     16607     16604     16602     16605     16608
     16605     16608     16611     16612     16605     16608     16611     16613
     16605     16608     16611     16614     16606     16605     16608     16609
     16606     16605     16608     16610     16606     16605     16608     16611
     16607     16605     16608     16609     16607     16605     16608     16610
     16607     16605     16608     16611     16609     16608     16611     16612
     16609     16608     16611     16613     16609     16608     16611     16614
     16610     16608     16611     16612     16610     16608     16611     16613
     16610     16608     16611     16614     16615     16618     16621     16622
     16615     16618     16621     16623     16615     16618     16621     16624
     16616     16615     16618     16619     16616     16615     16618     16620
     16616     16615     16618     16621     16617     16615     16618     16619
     16617     16615     16618     16620     16617     16615     16618     16621
     16618     16621     16624     16625     16618     16621     16624     16626
     16618     16621     16624     16627     16619     16618     16621     16622
     16619     16618     16621     16623     16619     16618     16621     16624
     16620     16618     16621     16622     16620     16618     16621     16623
     16620     16618     16621     16624     16621     16624     16627     16628
     16621     16624     16627     16629     16621     16624     16627     16630
     16622     16621     16624     16625     16622     16621     16624     16626
     16622     16621     16624     16627     16623     16621     16624     16625
     16623     16621     16624     16626     16623     16621     16624     16627
     16624     16627     16630     16631     16624     16627     16630     16632
     16624     16627     16630     16633     16625     16624     16627     16628
     16625     16624     16627     16629     16625     16624     16627     16630
     16626     16624     16627     16628     16626     16624     16627     16629
     16626     16624     16627     16630     16627     16630     16633     16634
     16627     16630     16633     16635     16627     16630     16633     16636
     16628     16627     16630     16631     16628     16627     16630     16632
     16628     16627     16630     16633     16629     16627     16630     16631
     16629     16627     16630     16632     16629     16627     16630     16633
     16630     16633     16636     16637     16630     16633     16636     16638
     16630     16633     16636     16639     16631     16630     16633     16634
     16631     16630     16633     16635     16631     16630     16633     16636
     16632     16630     16633     16634     16632     16630     16633     16635
     16632     16630     16633     16636     16633     16636     16639     16640
     16633     16636     16639     16641     16633     16636     16639     16642
     16634     16633     16636     16637     16634     16633     16636     16638
     16634     16633     16636     16639     16635     16633     16636     16637
     16635     16633     16636     16638     16635     16633     16636     16639
     16636     16639     16642     16643     16636     16639     16642     16644
     16636     16639     16642     16645     16637     16636     16639     16640
     16637     16636     16639     16641     16637     16636     16639     16642
     16638     16636     16639     16640     16638     16636     16639     16641
     16638     16636     16639     16642     16639     16642     16645     16646
     16639     16642     16645     16647     16639     16642     16645     16648
     16640     16639     16642     16643     16640     16639     16642     16644
     16640     16639     16642     16645     16641     16639     16642     16643
     16641     16639     16642     16644     16641     16639     16642     16645
     16642     16645     16648     16649     16642     16645     16648     16650
     16642     16645     16648     16651     16643     16642     16645     16646
     16643     16642     16645     16647     16643     16642     16645     16648
     16644     16642     16645     16646     16644     16642     16645     16647
     16644     16642     16645     16648     16645     16648     16651     16652
     16645     16648     16651     16653     16645     16648     16651     16654
     16646     16645     16648     16649     16646     16645     16648     16650
     16646     16645     16648     16651     16647     16645     16648     16649
     16647     16645     16648     16650     16647     16645     16648     16651
     16648     16651     16654     16655     16648     16651     16654     16656
     16648     16651     16654     16657     16649     16648     16651     16652
     16649     16648     16651     16653     16649     16648     16651     16654
     16650     16648     16651     16652     16650     16648     16651     16653
     16650     16648     16651     16654     16651     16654     16657     16658
     16651     16654     16657     16659     16651     16654     16657     16660
     16652     16651     16654     16655     16652     16651     16654     16656
     16652     16651     16654     16657     16653     16651     16654     16655
     16653     16651     16654     16656     16653     16651     16654     16657
     16654     16657     16660     16661     16654     16657     16660     16662
     16654     16657     16660     16663     16655     16654     16657     16658
     16655     16654     16657     16659     16655     16654     16657     16660
     16656     16654     16657     16658     16656     16654     16657     16659
     16656     16654     16657     16660     16658     16657     16660     16661
     16658     16657     16660     16662     16658     16657     16660     16663
     16659     16657     16660     16661     16659     16657     16660     16662
     16659     16657     16660     16663     16664     16677     16680     16681
     16664     16677     16680     16682     16664     16677     16680     16687
     16665     16664     16669     16670     16665     16664     16669     16671
     16665     16664     16669     16672     16665     16664     16673     16674
     16665     16664     16673     16675     16665     16664     16673     16676
     16665     16664     16677     16678     16665     16664     16677     16679
     16665     16664     16677     16680     16666     16665     16664     16669
     16666     16665     16664     16673     16666     16665     16664     16677
     16667     16665     16664     16669     16667     16665     16664     16673
     16667     16665     16664     16677     16668     16665     16664     16669
     16668     16665     16664     16673     16668     16665     16664     16677
     16669     16664     16673     16674     16669     16664     16673     16675
     16669     16664     16673     16676     16669     16664     16677     16678
     16669     16664     16677     16679     16669     16664     16677     16680
     16670     16669     16664     16673     16670     16669     16664     16677
     16671     16669     16664     16673     16671     16669     16664     16677
     16672     16669     16664     16673     16672     16669     16664     16677
     16673     16664     16677     16678     16673     16664     16677     16679
     16673     16664     16677     16680     16674     16673     16664     16677
     16675     16673     16664     16677     16676     16673     16664     16677
     16677     16680     16687     16683     16678     16677     16680     16681
     16678     16677     16680     16682     16678     16677     16680     16687
     16679     16677     16680     16681     16679     16677     16680     16682
     16679     16677     16680     16687     16680     16687     16683     16684
     16680     16687     16683     16685     16680     16687     16683     16686
     16681     16680     16687     16683     16682     16680     16687     16683
     16683     16686     16688     16689     16683     16686     16688     16690
     16683     16686     16688     16693     16684     16683     16686     16688
     16685     16683     16686     16688     16686     16688     16693     16691
     16686     16688     16693     16694     16686     16688     16693     16695
     16687     16683     16686     16688     16688     16693     16691     16692
     16688     16693     16691     16743     16688     16693     16695     16696
     16688     16693     16695     16697     16688     16693     16695     16699
     16689     16688     16693     16691     16689     16688     16693     16694
     16689     16688     16693     16695     16690     16688     16693     16691
     16690     16688     16693     16694     16690     16688     16693     16695
     16691     16693     16695     16696     16691     16693     16695     16697
     16691     16693     16695     16699     16691     16743     16745     16746
     16691     16743     16745     16747     16691     16743     16745     16748
     16692     16691     16693     16694     16692     16691     16693     16695
     16692     16691     16743     16744     16692     16691     16743     16745
     16693     16691     16743     16744     16693     16691     16743     16745
     16693     16695     16697     16698     16693     16695     16699     16700
     16693     16695     16699     16701     16694     16693     16691     16743
     16694     16693     16695     16696     16694     16693     16695     16697
     16694     16693     16695     16699     16695     16693     16691     16743
     16695     16699     16701     16702     16695     16699     16701     16703
     16696     16695     16697     16698     16696     16695     16699     16700
     16696     16695     16699     16701     16697     16695     16699     16700
     16697     16695     16699     16701     16698     16697     16695     16699
     16699     16701     16703     16704     16699     16701     16703     16705
     16699     16701     16703     16706     16700     16699     16701     16702
     16700     16699     16701     16703     16701     16703     16706     16707
     16701     16703     16706     16708     16701     16703     16706     16709
     16702     16701     16703     16704     16702     16701     16703     16705
     16702     16701     16703     16706     16703     16706     16709     16710
     16703     16706     16709     16711     16703     16706     16709     16712
     16704     16703     16706     16707     16704     16703     16706     16708
     16704     16703     16706     16709     16705     16703     16706     16707
     16705     16703     16706     16708     16705     16703     16706     16709
     16706     16709     16712     16713     16706     16709     16712     16714
     16706     16709     16712     16715     16707     16706     16709     16710
     16707     16706     16709     16711     16707     16706     16709     16712
     16708     16706     16709     16710     16708     16706     16709     16711
     16708     16706     16709     16712     16709     16712     16715     16716
     16709     16712     16715     16717     16709     16712     16715     16718
     16710     16709     16712     16713     16710     16709     16712     16714
     16710     16709     16712     16715     16711     16709     16712     16713
     16711     16709     16712     16714     16711     16709     16712     16715
     16712     16715     16718     16719     16712     16715     16718     16720
     16712     16715     16718     16721     16713     16712     16715     16716
     16713     16712     16715     16717     16713     16712     16715     16718
     16714     16712     16715     16716     16714     16712     16715     16717
     16714     16712     16715     16718     16715     16718     16721     16722
     16715     16718     16721     16723     16715     16718     16721     16724
     16716     16715     16718     16719     16716     16715     16718     16720
     16716     16715     16718     16721     16717     16715     16718     16719
     16717     16715     16718     16720     16717     16715     16718     16721
     16718     16721     16724     16725     16718     16721     16724     16726
     16718     16721     16724     16727     16719     16718     16721     16722
     16719     16718     16721     16723     16719     16718     16721     16724
     16720     16718     16721     16722     16720     16718     16721     16723
     16720     16718     16721     16724     16721     16724     16727     16728
     16721     16724     16727     16729     16721     16724     16727     16730
     16722     16721     16724     16725     16722     16721     16724     16726
     16722     16721     16724     16727     16723     16721     16724     16725
     16723     16721     16724     16726     16723     16721     16724     16727
     16724     16727     16730     16731     16724     16727     16730     16732
     16724     16727     16730     16733     16725     16724     16727     16728
     16725     16724     16727     16729     16725     16724     16727     16730
     16726     16724     16727     16728     16726     16724     16727     16729
     16726     16724     16727     16730     16727     16730     16733     16734
     16727     16730     16733     16735     16727     16730     16733     16736
     16728     16727     16730     16731     16728     16727     16730     16732
     16728     16727     16730     16733     16729     16727     16730     16731
     16729     16727     16730     16732     16729     16727     16730     16733
     16730     16733     16736     16737     16730     16733     16736     16738
     16730     16733     16736     16739     16731     16730     16733     16734
     16731     16730     16733     16735     16731     16730     16733     16736
     16732     16730     16733     16734     16732     16730     16733     16735
     16732     16730     16733     16736     16733     16736     16739     16740
     16733     16736     16739     16741     16733     16736     16739     16742
     16734     16733     16736     16737     16734     16733     16736     16738
     16734     16733     16736     16739     16735     16733     16736     16737
     16735     16733     16736     16738     16735     16733     16736     16739
     16737     16736     16739     16740     16737     16736     16739     16741
     16737     16736     16739     16742     16738     16736     16739     16740
     16738     16736     16739     16741     16738     16736     16739     16742
     16743     16745     16748     16749     16743     16745     16748     16750
     16743     16745     16748     16751     16744     16743     16745     16746
     16744     16743     16745     16747     16744     16743     16745     16748
     16745     16748     16751     16752     16745     16748     16751     16753
     16745     16748     16751     16754     16746     16745     16748     16749
     16746     16745     16748     16750     16746     16745     16748     16751
     16747     16745     16748     16749     16747     16745     16748     16750
     16747     16745     16748     16751     16748     16751     16754     16755
     16748     16751     16754     16756     16748     16751     16754     16757
     16749     16748     16751     16752     16749     16748     16751     16753
     16749     16748     16751     16754     16750     16748     16751     16752
     16750     16748     16751     16753     16750     16748     16751     16754
     16751     16754     16757     16758     16751     16754     16757     16759
     16751     16754     16757     16760     16752     16751     16754     16755
     16752     16751     16754     16756     16752     16751     16754     16757
     16753     16751     16754     16755     16753     16751     16754     16756
     16753     16751     16754     16757     16754     16757     16760     16761
     16754     16757     16760     16762     16754     16757     16760     16763
     16755     16754     16757     16758     16755     16754     16757     16759
     16755     16754     16757     16760     16756     16754     16757     16758
     16756     16754     16757     16759     16756     16754     16757     16760
     16757     16760     16763     16764     16757     16760     16763     16765
     16757     16760     16763     16766     16758     16757     16760     16761
     16758     16757     16760     16762     16758     16757     16760     16763
     16759     16757     16760     16761     16759     16757     16760     16762
     16759     16757     16760     16763     16760     16763     16766     16767
     16760     16763     16766     16768     16761     16760     16763     16764
     16761     16760     16763     16765     16761     16760     16763     16766
     16762     16760     16763     16764     16762     16760     16763     16765
     16762     16760     16763     16766     16763     16766     16768     16769
     16763     16766     16768     16770     16764     16763     16766     16767
     16764     16763     16766     16768     16765     16763     16766     16767
     16765     16763     16766     16768     16766     16768     16770     16771
     16766     16768     16770     16772     16766     16768     16770     16773
     16767     16766     16768     16769     16767     16766     16768     16770
     16768     16770     16773     16774     16768     16770     16773     16775
     16768     16770     16773     16776     16769     16768     16770     16771
     16769     16768     16770     16772     16769     16768     16770     16773
     16770     16773     16776     16777     16770     16773     16776     16778
     16770     16773     16776     16779     16771     16770     16773     16774
     16771     16770     16773     16775     16771     16770     16773     16776
     16772     16770     16773     16774     16772     16770     16773     16775
     16772     16770     16773     16776     16773     16776     16779     16780
     16773     16776     16779     16781     16773     16776     16779     16782
     16774     16773     16776     16777     16774     16773     16776     16778
     16774     16773     16776     16779     16775     16773     16776     16777
     16775     16773     16776     16778     16775     16773     16776     16779
     16776     16779     16782     16783     16776     16779     16782     16784
     16776     16779     16782     16785     16777     16776     16779     16780
     16777     16776     16779     16781     16777     16776     16779     16782
     16778     16776     16779     16780     16778     16776     16779     16781
     16778     16776     16779     16782     16779     16782     16785     16786
     16779     16782     16785     16787     16779     16782     16785     16788
     16780     16779     16782     16783     16780     16779     16782     16784
     16780     16779     16782     16785     16781     16779     16782     16783
     16781     16779     16782     16784     16781     16779     16782     16785
     16782     16785     16788     16789     16782     16785     16788     16790
     16782     16785     16788     16791     16783     16782     16785     16786
     16783     16782     16785     16787     16783     16782     16785     16788
     16784     16782     16785     16786     16784     16782     16785     16787
     16784     16782     16785     16788     16785     16788     16791     16792
     16785     16788     16791     16793     16785     16788     16791     16794
     16786     16785     16788     16789     16786     16785     16788     16790
     16786     16785     16788     16791     16787     16785     16788     16789
     16787     16785     16788     16790     16787     16785     16788     16791
     16789     16788     16791     16792     16789     16788     16791     16793
     16789     16788     16791     16794     16790     16788     16791     16792
     16790     16788     16791     16793     16790     16788     16791     16794
     16795     16799     16802     16803     16795     16799     16802     16833
     16795     16841     16838     16833     16795     16841     16838     16839
     16795     16841     16838     16840     16796     16795     16797     16798
     16796     16795     16799     16800     16796     16795     16799     16801
     16796     16795     16799     16802     16796     16795     16841     16838
     16796     16795     16841     16842     16796     16795     16841     16843
     16797     16795     16799     16800     16797     16795     16799     16801
     16797     16795     16799     16802     16797     16795     16841     16838
     16797     16795     16841     16842     16797     16795     16841     16843
     16798     16797     16795     16799     16798     16797     16795     16841
     16799     16795     16841     16838     16799     16795     16841     16842
     16799     16795     16841     16843     16799     16802     16803     16804
     16799     16802     16803     16805     16799     16802     16833     16831
     16799     16802     16833     16834     16799     16802     16833     16838
     16800     16799     16795     16841     16800     16799     16802     16803
     16800     16799     16802     16833     16801     16799     16795     16841
     16801     16799     16802     16803     16801     16799     16802     16833
     16802     16799     16795     16841     16802     16803     16805     16806
     16802     16803     16805     16807     16802     16803     16805     16808
     16802     16833     16831     16808     16802     16833     16831     16828
     16802     16833     16831     16832     16802     16833     16834     16835
     16802     16833     16834     16836     16802     16833     16834     16837
     16802     16833     16838     16839     16802     16833     16838     16840
     16802     16833     16838     16841     16803     16802     16833     16831
     16803     16802     16833     16834     16803     16802     16833     16838
     16803     16805     16808     16809     16803     16805     16808     16810
     16803     16805     16808     16831     16804     16803     16802     16833
     16804     16803     16805     16806     16804     16803     16805     16807
     16804     16803     16805     16808     16805     16803     16802     16833
     16805     16808     16810     16811     16805     16808     16810     16812
     16805     16808     16810     16820     16805     16808     16831     16828
     16805     16808     16831     16832     16805     16808     16831     16833
     16806     16805     16808     16809     16806     16805     16808     16810
     16806     16805     16808     16831     16807     16805     16808     16809
     16807     16805     16808     16810     16807     16805     16808     16831
     16808     16810     16812     16813     16808     16810     16812     16814
     16808     16810     16812     16815     16808     16810     16820     16818
     16808     16810     16820     16821     16808     16810     16820     16825
     16808     16831     16828     16825     16808     16831     16828     16829
     16808     16831     16828     16830     16808     16831     16833     16834
     16808     16831     16833     16838     16809     16808     16810     16811
     16809     16808     16810     16812     16809     16808     16810     16820
     16809     16808     16831     16828     16809     16808     16831     16832
     16809     16808     16831     16833     16810     16808     16831     16828
     16810     16808     16831     16832     16810     16808     16831     16833
     16810     16812     16815     16816     16810     16812     16815     16817
     16810     16812     16815     16818     16810     16820     16818     16815
     16810     16820     16818     16819     16810     16820     16818     16844
     16810     16820     16821     16822     16810     16820     16821     16823
     16810     16820     16821     16824     16810     16820     16825     16826
     16810     16820     16825     16827     16810     16820     16825     16828
     16811     16810     16808     16831     16811     16810     16812     16813
     16811     16810     16812     16814     16811     16810     16812     16815
     16811     16810     16820     16818     16811     16810     16820     16821
     16811     16810     16820     16825     16812     16810     16808     16831
     16812     16810     16820     16818     16812     16810     16820     16821
     16812     16810     16820     16825     16812     16815     16818     16819
     16812     16815     16818     16820     16812     16815     16818     16844
     16813     16812     16810     16820     16813     16812     16815     16816
     16813     16812     16815     16817     16813     16812     16815     16818
     16814     16812     16810     16820     16814     16812     16815     16816
     16814     16812     16815     16817     16814     16812     16815     16818
     16815     16812     16810     16820     16815     16818     16820     16821
     16815     16818     16820     16825     16815     16818     16844     16845
     16815     16818     16844     16846     16815     16818     16844     16850
     16816     16815     16818     16819     16816     16815     16818     16820
     16816     16815     16818     16844     16817     16815     16818     16819
     16817     16815     16818     16820     16817     16815     16818     16844
     16818     16820     16821     16822     16818     16820     16821     16823
     16818     16820     16821     16824     16818     16820     16825     16826
     16818     16820     16825     16827     16818     16820     16825     16828
     16818     16844     16846     16847     16818     16844     16846     16848
     16818     16844     16846     16849     16818     16844     16850     16851
     16818     16844     16850     16852     16818     16844     16850     16853
     16819     16818     16820     16821     16819     16818     16820     16825
     16819     16818     16844     16845     16819     16818     16844     16846
     16819     16818     16844     16850     16820     16810     16808     16831
     16820     16818     16844     16845     16820     16818     16844     16846
     16820     16818     16844     16850     16820     16825     16828     16829
     16820     16825     16828     16830     16820     16825     16828     16831
     16821     16820     16818     16844     16821     16820     16825     16826
     16821     16820     16825     16827     16821     16820     16825     16828
     16822     16821     16820     16825     16823     16821     16820     16825
     16824     16821     16820     16825     16825     16820     16818     16844
     16825     16828     16831     16832     16825     16828     16831     16833
     16826     16825     16828     16829     16826     16825     16828     16830
     16826     16825     16828     16831     16827     16825     16828     16829
     16827     16825     16828     16830     16827     16825     16828     16831
     16828     16831     16833     16834     16828     16831     16833     16838
     16829     16828     16831     16832     16829     16828     16831     16833
     16830     16828     16831     16832     16830     16828     16831     16833
     16831     16833     16834     16835     16831     16833     16834     16836
     16831     16833     16834     16837     16831     16833     16838     16839
     16831     16833     16838     16840     16831     16833     16838     16841
     16832     16831     16833     16834     16832     16831     16833     16838
     16833     16838     16841     16842     16833     16838     16841     16843
     16834     16833     16838     16839     16834     16833     16838     16840
     16834     16833     16838     16841     16835     16834     16833     16838
     16836     16834     16833     16838     16837     16834     16833     16838
     16839     16838     16841     16842     16839     16838     16841     16843
     16840     16838     16841     16842     16840     16838     16841     16843
     16844     16850     16853     16854     16844     16850     16853     16855
     16844     16850     16853     16856     16845     16844     16846     16847
     16845     16844     16846     16848     16845     16844     16846     16849
     16845     16844     16850     16851     16845     16844     16850     16852
     16845     16844     16850     16853     16846     16844     16850     16851
     16846     16844     16850     16852     16846     16844     16850     16853
     16847     16846     16844     16850     16848     16846     16844     16850
     16849     16846     16844     16850     16850     16853     16856     16857
     16850     16853     16856     16858     16850     16853     16856     16859
     16851     16850     16853     16854     16851     16850     16853     16855
     16851     16850     16853     16856     16852     16850     16853     16854
     16852     16850     16853     16855     16852     16850     16853     16856
     16853     16856     16859     16860     16853     16856     16859     16861
     16853     16856     16859     16865     16854     16853     16856     16857
     16854     16853     16856     16858     16854     16853     16856     16859
     16855     16853     16856     16857     16855     16853     16856     16858
     16855     16853     16856     16859     16856     16859     16861     16862
     16856     16859     16861     16863     16856     16859     16861     16864
     16856     16859     16865     16866     16856     16859     16865     16867
     16856     16859     16865     16868     16857     16856     16859     16860
     16857     16856     16859     16861     16857     16856     16859     16865
     16858     16856     16859     16860     16858     16856     16859     16861
     16858     16856     16859     16865     16860     16859     16861     16862
     16860     16859     16861     16863     16860     16859     16861     16864
     16860     16859     16865     16866     16860     16859     16865     16867
     16860     16859     16865     16868     16861     16859     16865     16866
     16861     16859     16865     16867     16861     16859     16865     16868
     16862     16861     16859     16865     16863     16861     16859     16865
     16864     16861     16859     16865     16869     16873     16876     16877
     16869     16873     16876     16907     16869     16915     16912     16907
     16869     16915     16912     16913     16869     16915     16912     16914
     16870     16869     16871     16872     16870     16869     16873     16874
     16870     16869     16873     16875     16870     16869     16873     16876
     16870     16869     16915     16912     16870     16869     16915     16916
     16870     16869     16915     16917     16871     16869     16873     16874
     16871     16869     16873     16875     16871     16869     16873     16876
     16871     16869     16915     16912     16871     16869     16915     16916
     16871     16869     16915     16917     16872     16871     16869     16873
     16872     16871     16869     16915     16873     16869     16915     16912
     16873     16869     16915     16916     16873     16869     16915     16917
     16873     16876     16877     16878     16873     16876     16877     16879
     16873     16876     16907     16905     16873     16876     16907     16908
     16873     16876     16907     16912     16874     16873     16869     16915
     16874     16873     16876     16877     16874     16873     16876     16907
     16875     16873     16869     16915     16875     16873     16876     16877
     16875     16873     16876     16907     16876     16873     16869     16915
     16876     16877     16879     16880     16876     16877     16879     16881
     16876     16877     16879     16882     16876     16907     16905     16882
     16876     16907     16905     16902     16876     16907     16905     16906
     16876     16907     16908     16909     16876     16907     16908     16910
     16876     16907     16908     16911     16876     16907     16912     16913
     16876     16907     16912     16914     16876     16907     16912     16915
     16877     16876     16907     16905     16877     16876     16907     16908
     16877     16876     16907     16912     16877     16879     16882     16883
     16877     16879     16882     16884     16877     16879     16882     16905
     16878     16877     16876     16907     16878     16877     16879     16880
     16878     16877     16879     16881     16878     16877     16879     16882
     16879     16877     16876     16907     16879     16882     16884     16885
     16879     16882     16884     16886     16879     16882     16884     16894
     16879     16882     16905     16902     16879     16882     16905     16906
     16879     16882     16905     16907     16880     16879     16882     16883
     16880     16879     16882     16884     16880     16879     16882     16905
     16881     16879     16882     16883     16881     16879     16882     16884
     16881     16879     16882     16905     16882     16884     16886     16887
     16882     16884     16886     16888     16882     16884     16886     16889
     16882     16884     16894     16892     16882     16884     16894     16895
     16882     16884     16894     16899     16882     16905     16902     16899
     16882     16905     16902     16903     16882     16905     16902     16904
     16882     16905     16907     16908     16882     16905     16907     16912
     16883     16882     16884     16885     16883     16882     16884     16886
     16883     16882     16884     16894     16883     16882     16905     16902
     16883     16882     16905     16906     16883     16882     16905     16907
     16884     16882     16905     16902     16884     16882     16905     16906
     16884     16882     16905     16907     16884     16886     16889     16890
     16884     16886     16889     16891     16884     16886     16889     16892
     16884     16894     16892     16889     16884     16894     16892     16893
     16884     16894     16892     16918     16884     16894     16895     16896
     16884     16894     16895     16897     16884     16894     16895     16898
     16884     16894     16899     16900     16884     16894     16899     16901
     16884     16894     16899     16902     16885     16884     16882     16905
     16885     16884     16886     16887     16885     16884     16886     16888
     16885     16884     16886     16889     16885     16884     16894     16892
     16885     16884     16894     16895     16885     16884     16894     16899
     16886     16884     16882     16905     16886     16884     16894     16892
     16886     16884     16894     16895     16886     16884     16894     16899
     16886     16889     16892     16893     16886     16889     16892     16894
     16886     16889     16892     16918     16887     16886     16884     16894
     16887     16886     16889     16890     16887     16886     16889     16891
     16887     16886     16889     16892     16888     16886     16884     16894
     16888     16886     16889     16890     16888     16886     16889     16891
     16888     16886     16889     16892     16889     16886     16884     16894
     16889     16892     16894     16895     16889     16892     16894     16899
     16889     16892     16918     16919     16889     16892     16918     16920
     16889     16892     16918     16924     16890     16889     16892     16893
     16890     16889     16892     16894     16890     16889     16892     16918
     16891     16889     16892     16893     16891     16889     16892     16894
     16891     16889     16892     16918     16892     16894     16895     16896
     16892     16894     16895     16897     16892     16894     16895     16898
     16892     16894     16899     16900     16892     16894     16899     16901
     16892     16894     16899     16902     16892     16918     16920     16921
     16892     16918     16920     16922     16892     16918     16920     16923
     16892     16918     16924     16925     16892     16918     16924     16926
     16892     16918     16924     16927     16893     16892     16894     16895
     16893     16892     16894     16899     16893     16892     16918     16919
     16893     16892     16918     16920     16893     16892     16918     16924
     16894     16884     16882     16905     16894     16892     16918     16919
     16894     16892     16918     16920     16894     16892     16918     16924
     16894     16899     16902     16903     16894     16899     16902     16904
     16894     16899     16902     16905     16895     16894     16892     16918
     16895     16894     16899     16900     16895     16894     16899     16901
     16895     16894     16899     16902     16896     16895     16894     16899
     16897     16895     16894     16899     16898     16895     16894     16899
     16899     16894     16892     16918     16899     16902     16905     16906
     16899     16902     16905     16907     16900     16899     16902     16903
     16900     16899     16902     16904     16900     16899     16902     16905
     16901     16899     16902     16903     16901     16899     16902     16904
     16901     16899     16902     16905     16902     16905     16907     16908
     16902     16905     16907     16912     16903     16902     16905     16906
     16903     16902     16905     16907     16904     16902     16905     16906
     16904     16902     16905     16907     16905     16907     16908     16909
     16905     16907     16908     16910     16905     16907     16908     16911
     16905     16907     16912     16913     16905     16907     16912     16914
     16905     16907     16912     16915     16906     16905     16907     16908
     16906     16905     16907     16912     16907     16912     16915     16916
     16907     16912     16915     16917     16908     16907     16912     16913
     16908     16907     16912     16914     16908     16907     16912     16915
     16909     16908     16907     16912     16910     16908     16907     16912
     16911     16908     16907     16912     16913     16912     16915     16916
     16913     16912     16915     16917     16914     16912     16915     16916
     16914     16912     16915     16917     16918     16924     16927     16928
     16918     16924     16927     16929     16918     16924     16927     16930
     16919     16918     16920     16921     16919     16918     16920     16922
     16919     16918     16920     16923     16919     16918     16924     16925
     16919     16918     16924     16926     16919     16918     16924     16927
     16920     16918     16924     16925     16920     16918     16924     16926
     16920     16918     16924     16927     16921     16920     16918     16924
     16922     16920     16918     16924     16923     16920     16918     16924
     16924     16927     16930     16931     16924     16927     16930     16932
     16924     16927     16930     16933     16925     16924     16927     16928
     16925     16924     16927     16929     16925     16924     16927     16930
     16926     16924     16927     16928     16926     16924     16927     16929
     16926     16924     16927     16930     16927     16930     16933     16934
     16927     16930     16933     16935     16927     16930     16933     16939
     16928     16927     16930     16931     16928     16927     16930     16932
     16928     16927     16930     16933     16929     16927     16930     16931
     16929     16927     16930     16932     16929     16927     16930     16933
     16930     16933     16935     16936     16930     16933     16935     16937
     16930     16933     16935     16938     16930     16933     16939     16940
     16930     16933     16939     16941     16930     16933     16939     16942
     16931     16930     16933     16934     16931     16930     16933     16935
     16931     16930     16933     16939     16932     16930     16933     16934
     16932     16930     16933     16935     16932     16930     16933     16939
     16934     16933     16935     16936     16934     16933     16935     16937
     16934     16933     16935     16938     16934     16933     16939     16940
     16934     16933     16939     16941     16934     16933     16939     16942
     16935     16933     16939     16940     16935     16933     16939     16941
     16935     16933     16939     16942     16936     16935     16933     16939
     16937     16935     16933     16939     16938     16935     16933     16939
     16943     16947     16950     16951     16943     16947     16950     16981
     16943     16989     16986     16981     16943     16989     16986     16987
     16943     16989     16986     16988     16944     16943     16945     16946
     16944     16943     16947     16948     16944     16943     16947     16949
     16944     16943     16947     16950     16944     16943     16989     16986
     16944     16943     16989     16990     16944     16943     16989     16991
     16945     16943     16947     16948     16945     16943     16947     16949
     16945     16943     16947     16950     16945     16943     16989     16986
     16945     16943     16989     16990     16945     16943     16989     16991
     16946     16945     16943     16947     16946     16945     16943     16989
     16947     16943     16989     16986     16947     16943     16989     16990
     16947     16943     16989     16991     16947     16950     16951     16952
     16947     16950     16951     16953     16947     16950     16981     16979
     16947     16950     16981     16982     16947     16950     16981     16986
     16948     16947     16943     16989     16948     16947     16950     16951
     16948     16947     16950     16981     16949     16947     16943     16989
     16949     16947     16950     16951     16949     16947     16950     16981
     16950     16947     16943     16989     16950     16951     16953     16954
     16950     16951     16953     16955     16950     16951     16953     16956
     16950     16981     16979     16956     16950     16981     16979     16976
     16950     16981     16979     16980     16950     16981     16982     16983
     16950     16981     16982     16984     16950     16981     16982     16985
     16950     16981     16986     16987     16950     16981     16986     16988
     16950     16981     16986     16989     16951     16950     16981     16979
     16951     16950     16981     16982     16951     16950     16981     16986
     16951     16953     16956     16957     16951     16953     16956     16958
     16951     16953     16956     16979     16952     16951     16950     16981
     16952     16951     16953     16954     16952     16951     16953     16955
     16952     16951     16953     16956     16953     16951     16950     16981
     16953     16956     16958     16959     16953     16956     16958     16960
     16953     16956     16958     16968     16953     16956     16979     16976
     16953     16956     16979     16980     16953     16956     16979     16981
     16954     16953     16956     16957     16954     16953     16956     16958
     16954     16953     16956     16979     16955     16953     16956     16957
     16955     16953     16956     16958     16955     16953     16956     16979
     16956     16958     16960     16961     16956     16958     16960     16962
     16956     16958     16960     16963     16956     16958     16968     16966
     16956     16958     16968     16969     16956     16958     16968     16973
     16956     16979     16976     16973     16956     16979     16976     16977
     16956     16979     16976     16978     16956     16979     16981     16982
     16956     16979     16981     16986     16957     16956     16958     16959
     16957     16956     16958     16960     16957     16956     16958     16968
     16957     16956     16979     16976     16957     16956     16979     16980
     16957     16956     16979     16981     16958     16956     16979     16976
     16958     16956     16979     16980     16958     16956     16979     16981
     16958     16960     16963     16964     16958     16960     16963     16965
     16958     16960     16963     16966     16958     16968     16966     16963
     16958     16968     16966     16967     16958     16968     16966     16992
     16958     16968     16969     16970     16958     16968     16969     16971
     16958     16968     16969     16972     16958     16968     16973     16974
     16958     16968     16973     16975     16958     16968     16973     16976
     16959     16958     16956     16979     16959     16958     16960     16961
     16959     16958     16960     16962     16959     16958     16960     16963
     16959     16958     16968     16966     16959     16958     16968     16969
     16959     16958     16968     16973     16960     16958     16956     16979
     16960     16958     16968     16966     16960     16958     16968     16969
     16960     16958     16968     16973     16960     16963     16966     16967
     16960     16963     16966     16968     16960     16963     16966     16992
     16961     16960     16958     16968     16961     16960     16963     16964
     16961     16960     16963     16965     16961     16960     16963     16966
     16962     16960     16958     16968     16962     16960     16963     16964
     16962     16960     16963     16965     16962     16960     16963     16966
     16963     16960     16958     16968     16963     16966     16968     16969
     16963     16966     16968     16973     16963     16966     16992     16993
     16963     16966     16992     16994     16963     16966     16992     16998
     16964     16963     16966     16967     16964     16963     16966     16968
     16964     16963     16966     16992     16965     16963     16966     16967
     16965     16963     16966     16968     16965     16963     16966     16992
     16966     16968     16969     16970     16966     16968     16969     16971
     16966     16968     16969     16972     16966     16968     16973     16974
     16966     16968     16973     16975     16966     16968     16973     16976
     16966     16992     16994     16995     16966     16992     16994     16996
     16966     16992     16994     16997     16966     16992     16998     16999
     16966     16992     16998     17000     16966     16992     16998     17001
     16967     16966     16968     16969     16967     16966     16968     16973
     16967     16966     16992     16993     16967     16966     16992     16994
     16967     16966     16992     16998     16968     16958     16956     16979
     16968     16966     16992     16993     16968     16966     16992     16994
     16968     16966     16992     16998     16968     16973     16976     16977
     16968     16973     16976     16978     16968     16973     16976     16979
     16969     16968     16966     16992     16969     16968     16973     16974
     16969     16968     16973     16975     16969     16968     16973     16976
     16970     16969     16968     16973     16971     16969     16968     16973
     16972     16969     16968     16973     16973     16968     16966     16992
     16973     16976     16979     16980     16973     16976     16979     16981
     16974     16973     16976     16977     16974     16973     16976     16978
     16974     16973     16976     16979     16975     16973     16976     16977
     16975     16973     16976     16978     16975     16973     16976     16979
     16976     16979     16981     16982     16976     16979     16981     16986
     16977     16976     16979     16980     16977     16976     16979     16981
     16978     16976     16979     16980     16978     16976     16979     16981
     16979     16981     16982     16983     16979     16981     16982     16984
     16979     16981     16982     16985     16979     16981     16986     16987
     16979     16981     16986     16988     16979     16981     16986     16989
     16980     16979     16981     16982     16980     16979     16981     16986
     16981     16986     16989     16990     16981     16986     16989     16991
     16982     16981     16986     16987     16982     16981     16986     16988
     16982     16981     16986     16989     16983     16982     16981     16986
     16984     16982     16981     16986     16985     16982     16981     16986
     16987     16986     16989     16990     16987     16986     16989     16991
     16988     16986     16989     16990     16988     16986     16989     16991
     16992     16998     17001     17002     16992     16998     17001     17003
     16992     16998     17001     17004     16993     16992     16994     16995
     16993     16992     16994     16996     16993     16992     16994     16997
     16993     16992     16998     16999     16993     16992     16998     17000
     16993     16992     16998     17001     16994     16992     16998     16999
     16994     16992     16998     17000     16994     16992     16998     17001
     16995     16994     16992     16998     16996     16994     16992     16998
     16997     16994     16992     16998     16998     17001     17004     17005
     16998     17001     17004     17006     16998     17001     17004     17007
     16999     16998     17001     17002     16999     16998     17001     17003
     16999     16998     17001     17004     17000     16998     17001     17002
     17000     16998     17001     17003     17000     16998     17001     17004
     17001     17004     17007     17008     17001     17004     17007     17009
     17001     17004     17007     17013     17002     17001     17004     17005
     17002     17001     17004     17006     17002     17001     17004     17007
     17003     17001     17004     17005     17003     17001     17004     17006
     17003     17001     17004     17007     17004     17007     17009     17010
     17004     17007     17009     17011     17004     17007     17009     17012
     17004     17007     17013     17014     17004     17007     17013     17015
     17004     17007     17013     17016     17005     17004     17007     17008
     17005     17004     17007     17009     17005     17004     17007     17013
     17006     17004     17007     17008     17006     17004     17007     17009
     17006     17004     17007     17013     17008     17007     17009     17010
     17008     17007     17009     17011     17008     17007     17009     17012
     17008     17007     17013     17014     17008     17007     17013     17015
     17008     17007     17013     17016     17009     17007     17013     17014
     17009     17007     17013     17015     17009     17007     17013     17016
     17010     17009     17007     17013     17011     17009     17007     17013
     17012     17009     17007     17013     17017     17021     17024     17025
     17017     17021     17024     17055     17017     17063     17060     17055
     17017     17063     17060     17061     17017     17063     17060     17062
     17018     17017     17019     17020     17018     17017     17021     17022
     17018     17017     17021     17023     17018     17017     17021     17024
     17018     17017     17063     17060     17018     17017     17063     17064
     17018     17017     17063     17065     17019     17017     17021     17022
     17019     17017     17021     17023     17019     17017     17021     17024
     17019     17017     17063     17060     17019     17017     17063     17064
     17019     17017     17063     17065     17020     17019     17017     17021
     17020     17019     17017     17063     17021     17017     17063     17060
     17021     17017     17063     17064     17021     17017     17063     17065
     17021     17024     17025     17026     17021     17024     17025     17027
     17021     17024     17055     17053     17021     17024     17055     17056
     17021     17024     17055     17060     17022     17021     17017     17063
     17022     17021     17024     17025     17022     17021     17024     17055
     17023     17021     17017     17063     17023     17021     17024     17025
     17023     17021     17024     17055     17024     17021     17017     17063
     17024     17025     17027     17028     17024     17025     17027     17029
     17024     17025     17027     17030     17024     17055     17053     17030
     17024     17055     17053     17050     17024     17055     17053     17054
     17024     17055     17056     17057     17024     17055     17056     17058
     17024     17055     17056     17059     17024     17055     17060     17061
     17024     17055     17060     17062     17024     17055     17060     17063
     17025     17024     17055     17053     17025     17024     17055     17056
     17025     17024     17055     17060     17025     17027     17030     17031
     17025     17027     17030     17032     17025     17027     17030     17053
     17026     17025     17024     17055     17026     17025     17027     17028
     17026     17025     17027     17029     17026     17025     17027     17030
     17027     17025     17024     17055     17027     17030     17032     17033
     17027     17030     17032     17034     17027     17030     17032     17042
     17027     17030     17053     17050     17027     17030     17053     17054
     17027     17030     17053     17055     17028     17027     17030     17031
     17028     17027     17030     17032     17028     17027     17030     17053
     17029     17027     17030     17031     17029     17027     17030     17032
     17029     17027     17030     17053     17030     17032     17034     17035
     17030     17032     17034     17036     17030     17032     17034     17037
     17030     17032     17042     17040     17030     17032     17042     17043
     17030     17032     17042     17047     17030     17053     17050     17047
     17030     17053     17050     17051     17030     17053     17050     17052
     17030     17053     17055     17056     17030     17053     17055     17060
     17031     17030     17032     17033     17031     17030     17032     17034
     17031     17030     17032     17042     17031     17030     17053     17050
     17031     17030     17053     17054     17031     17030     17053     17055
     17032     17030     17053     17050     17032     17030     17053     17054
     17032     17030     17053     17055     17032     17034     17037     17038
     17032     17034     17037     17039     17032     17034     17037     17040
     17032     17042     17040     17037     17032     17042     17040     17041
     17032     17042     17040     17066     17032     17042     17043     17044
     17032     17042     17043     17045     17032     17042     17043     17046
     17032     17042     17047     17048     17032     17042     17047     17049
     17032     17042     17047     17050     17033     17032     17030     17053
     17033     17032     17034     17035     17033     17032     17034     17036
     17033     17032     17034     17037     17033     17032     17042     17040
     17033     17032     17042     17043     17033     17032     17042     17047
     17034     17032     17030     17053     17034     17032     17042     17040
     17034     17032     17042     17043     17034     17032     17042     17047
     17034     17037     17040     17041     17034     17037     17040     17042
     17034     17037     17040     17066     17035     17034     17032     17042
     17035     17034     17037     17038     17035     17034     17037     17039
     17035     17034     17037     17040     17036     17034     17032     17042
     17036     17034     17037     17038     17036     17034     17037     17039
     17036     17034     17037     17040     17037     17034     17032     17042
     17037     17040     17042     17043     17037     17040     17042     17047
     17037     17040     17066     17067     17037     17040     17066     17068
     17037     17040     17066     17072     17038     17037     17040     17041
     17038     17037     17040     17042     17038     17037     17040     17066
     17039     17037     17040     17041     17039     17037     17040     17042
     17039     17037     17040     17066     17040     17042     17043     17044
     17040     17042     17043     17045     17040     17042     17043     17046
     17040     17042     17047     17048     17040     17042     17047     17049
     17040     17042     17047     17050     17040     17066     17068     17069
     17040     17066     17068     17070     17040     17066     17068     17071
     17040     17066     17072     17073     17040     17066     17072     17074
     17040     17066     17072     17075     17041     17040     17042     17043
     17041     17040     17042     17047     17041     17040     17066     17067
     17041     17040     17066     17068     17041     17040     17066     17072
     17042     17032     17030     17053     17042     17040     17066     17067
     17042     17040     17066     17068     17042     17040     17066     17072
     17042     17047     17050     17051     17042     17047     17050     17052
     17042     17047     17050     17053     17043     17042     17040     17066
     17043     17042     17047     17048     17043     17042     17047     17049
     17043     17042     17047     17050     17044     17043     17042     17047
     17045     17043     17042     17047     17046     17043     17042     17047
     17047     17042     17040     17066     17047     17050     17053     17054
     17047     17050     17053     17055     17048     17047     17050     17051
     17048     17047     17050     17052     17048     17047     17050     17053
     17049     17047     17050     17051     17049     17047     17050     17052
     17049     17047     17050     17053     17050     17053     17055     17056
     17050     17053     17055     17060     17051     17050     17053     17054
     17051     17050     17053     17055     17052     17050     17053     17054
     17052     17050     17053     17055     17053     17055     17056     17057
     17053     17055     17056     17058     17053     17055     17056     17059
     17053     17055     17060     17061     17053     17055     17060     17062
     17053     17055     17060     17063     17054     17053     17055     17056
     17054     17053     17055     17060     17055     17060     17063     17064
     17055     17060     17063     17065     17056     17055     17060     17061
     17056     17055     17060     17062     17056     17055     17060     17063
     17057     17056     17055     17060     17058     17056     17055     17060
     17059     17056     17055     17060     17061     17060     17063     17064
     17061     17060     17063     17065     17062     17060     17063     17064
     17062     17060     17063     17065     17066     17072     17075     17076
     17066     17072     17075     17077     17066     17072     17075     17078
     17067     17066     17068     17069     17067     17066     17068     17070
     17067     17066     17068     17071     17067     17066     17072     17073
     17067     17066     17072     17074     17067     17066     17072     17075
     17068     17066     17072     17073     17068     17066     17072     17074
     17068     17066     17072     17075     17069     17068     17066     17072
     17070     17068     17066     17072     17071     17068     17066     17072
     17072     17075     17078     17079     17072     17075     17078     17080
     17072     17075     17078     17081     17073     17072     17075     17076
     17073     17072     17075     17077     17073     17072     17075     17078
     17074     17072     17075     17076     17074     17072     17075     17077
     17074     17072     17075     17078     17075     17078     17081     17082
     17075     17078     17081     17083     17075     17078     17081     17087
     17076     17075     17078     17079     17076     17075     17078     17080
     17076     17075     17078     17081     17077     17075     17078     17079
     17077     17075     17078     17080     17077     17075     17078     17081
     17078     17081     17083     17084     17078     17081     17083     17085
     17078     17081     17083     17086     17078     17081     17087     17088
     17078     17081     17087     17089     17078     17081     17087     17090
     17079     17078     17081     17082     17079     17078     17081     17083
     17079     17078     17081     17087     17080     17078     17081     17082
     17080     17078     17081     17083     17080     17078     17081     17087
     17082     17081     17083     17084     17082     17081     17083     17085
     17082     17081     17083     17086     17082     17081     17087     17088
     17082     17081     17087     17089     17082     17081     17087     17090
     17083     17081     17087     17088     17083     17081     17087     17089
     17083     17081     17087     17090     17084     17083     17081     17087
     17085     17083     17081     17087     17086     17083     17081     17087
     17091     17095     17098     17099     17091     17095     17098     17100
     17091     17095     17098     17104     17092     17091     17095     17096
     17092     17091     17095     17097     17092     17091     17095     17098
     17093     17091     17095     17096     17093     17091     17095     17097
     17093     17091     17095     17098     17094     17091     17095     17096
     17094     17091     17095     17097     17094     17091     17095     17098
     17095     17098     17104     17101     17096     17095     17098     17099
     17096     17095     17098     17100     17096     17095     17098     17104
     17097     17095     17098     17099     17097     17095     17098     17100
     17097     17095     17098     17104     17098     17104     17101     17102
     17098     17104     17101     17103     17098     17104     17101     17105
     17099     17098     17104     17101     17100     17098     17104     17101
     17101     17105     17106     17107     17101     17105     17106     17108
     17101     17105     17106     17109     17102     17101     17105     17106
     17103     17101     17105     17106     17104     17101     17105     17106
     17105     17106     17109     17110     17105     17106     17109     17111
     17105     17106     17109     17117     17106     17109     17111     17112
     17106     17109     17117     17118     17106     17109     17117     17119
     17106     17109     17117     17120     17107     17106     17109     17110
     17107     17106     17109     17111     17107     17106     17109     17117
     17108     17106     17109     17110     17108     17106     17109     17111
     17108     17106     17109     17117     17109     17111     17112     17113
     17109     17111     17112     17114     17109     17117     17120     17121
     17110     17109     17111     17112     17110     17109     17117     17118
     17110     17109     17117     17119     17110     17109     17117     17120
     17111     17109     17117     17118     17111     17109     17117     17119
     17111     17109     17117     17120     17111     17112     17114     17115
     17111     17112     17114     17116     17111     17112     17114     17126
     17112     17111     17109     17117     17112     17114     17126     17127
     17112     17114     17126     17128     17112     17114     17126     17129
     17113     17112     17114     17115     17113     17112     17114     17116
     17113     17112     17114     17126     17114     17126     17129     17130
     17114     17126     17129     17131     17114     17126     17129     17132
     17115     17114     17126     17127     17115     17114     17126     17128
     17115     17114     17126     17129     17116     17114     17126     17127
     17116     17114     17126     17128     17116     17114     17126     17129
     17117     17120     17121     17122     17117     17120     17121     17123
     17118     17117     17120     17121     17119     17117     17120     17121
     17120     17121     17123     17124     17120     17121     17123     17125
     17120     17121     17123     17173     17121     17123     17173     17174
     17121     17123     17173     17175     17121     17123     17173     17176
     17122     17121     17123     17124     17122     17121     17123     17125
     17122     17121     17123     17173     17123     17173     17176     17177
     17123     17173     17176     17178     17123     17173     17176     17179
     17124     17123     17173     17174     17124     17123     17173     17175
     17124     17123     17173     17176     17125     17123     17173     17174
     17125     17123     17173     17175     17125     17123     17173     17176
     17126     17129     17132     17133     17126     17129     17132     17134
     17127     17126     17129     17130     17127     17126     17129     17131
     17127     17126     17129     17132     17128     17126     17129     17130
     17128     17126     17129     17131     17128     17126     17129     17132
     17129     17132     17134     17135     17129     17132     17134     17136
     17130     17129     17132     17133     17130     17129     17132     17134
     17131     17129     17132     17133     17131     17129     17132     17134
     17132     17134     17136     17137     17132     17134     17136     17138
     17132     17134     17136     17139     17133     17132     17134     17135
     17133     17132     17134     17136     17134     17136     17139     17140
     17134     17136     17139     17141     17135     17134     17136     17137
     17135     17134     17136     17138     17135     17134     17136     17139
     17136     17139     17141     17142     17136     17139     17141     17143
     17137     17136     17139     17140     17137     17136     17139     17141
     17138     17136     17139     17140     17138     17136     17139     17141
     17139     17141     17143     17144     17139     17141     17143     17145
     17139     17141     17143     17146     17140     17139     17141     17142
     17140     17139     17141     17143     17141     17143     17146     17147
     17141     17143     17146     17148     17142     17141     17143     17144
     17142     17141     17143     17145     17142     17141     17143     17146
     17143     17146     17148     17149     17143     17146     17148     17150
     17144     17143     17146     17147     17144     17143     17146     17148
     17145     17143     17146     17147     17145     17143     17146     17148
     17146     17148     17150     17151     17146     17148     17150     17152
     17146     17148     17150     17153     17147     17146     17148     17149
     17147     17146     17148     17150     17148     17150     17153     17154
     17148     17150     17153     17155     17149     17148     17150     17151
     17149     17148     17150     17152     17149     17148     17150     17153
     17150     17153     17155     17156     17150     17153     17155     17157
     17151     17150     17153     17154     17151     17150     17153     17155
     17152     17150     17153     17154     17152     17150     17153     17155
     17153     17155     17157     17158     17153     17155     17157     17159
     17153     17155     17157     17160     17154     17153     17155     17156
     17154     17153     17155     17157     17155     17157     17160     17161
     17155     17157     17160     17162     17155     17157     17160     17163
     17156     17155     17157     17158     17156     17155     17157     17159
     17156     17155     17157     17160     17157     17160     17163     17164
     17157     17160     17163     17165     17157     17160     17163     17166
     17158     17157     17160     17161     17158     17157     17160     17162
     17158     17157     17160     17163     17159     17157     17160     17161
     17159     17157     17160     17162     17159     17157     17160     17163
     17160     17163     17166     17167     17160     17163     17166     17168
     17160     17163     17166     17169     17161     17160     17163     17164
     17161     17160     17163     17165     17161     17160     17163     17166
     17162     17160     17163     17164     17162     17160     17163     17165
     17162     17160     17163     17166     17163     17166     17169     17170
     17163     17166     17169     17171     17163     17166     17169     17172
     17164     17163     17166     17167     17164     17163     17166     17168
     17164     17163     17166     17169     17165     17163     17166     17167
     17165     17163     17166     17168     17165     17163     17166     17169
     17167     17166     17169     17170     17167     17166     17169     17171
     17167     17166     17169     17172     17168     17166     17169     17170
     17168     17166     17169     17171     17168     17166     17169     17172
     17173     17176     17179     17180     17173     17176     17179     17181
     17173     17176     17179     17182     17174     17173     17176     17177
     17174     17173     17176     17178     17174     17173     17176     17179
     17175     17173     17176     17177     17175     17173     17176     17178
     17175     17173     17176     17179     17176     17179     17182     17183
     17176     17179     17182     17184     17176     17179     17182     17185
     17177     17176     17179     17180     17177     17176     17179     17181
     17177     17176     17179     17182     17178     17176     17179     17180
     17178     17176     17179     17181     17178     17176     17179     17182
     17179     17182     17185     17186     17179     17182     17185     17187
     17179     17182     17185     17188     17180     17179     17182     17183
     17180     17179     17182     17184     17180     17179     17182     17185
     17181     17179     17182     17183     17181     17179     17182     17184
     17181     17179     17182     17185     17182     17185     17188     17189
     17182     17185     17188     17190     17182     17185     17188     17191
     17183     17182     17185     17186     17183     17182     17185     17187
     17183     17182     17185     17188     17184     17182     17185     17186
     17184     17182     17185     17187     17184     17182     17185     17188
     17185     17188     17191     17192     17185     17188     17191     17193
     17185     17188     17191     17194     17186     17185     17188     17189
     17186     17185     17188     17190     17186     17185     17188     17191
     17187     17185     17188     17189     17187     17185     17188     17190
     17187     17185     17188     17191     17188     17191     17194     17195
     17188     17191     17194     17196     17188     17191     17194     17197
     17189     17188     17191     17192     17189     17188     17191     17193
     17189     17188     17191     17194     17190     17188     17191     17192
     17190     17188     17191     17193     17190     17188     17191     17194
     17191     17194     17197     17198     17191     17194     17197     17199
     17191     17194     17197     17200     17192     17191     17194     17195
     17192     17191     17194     17196     17192     17191     17194     17197
     17193     17191     17194     17195     17193     17191     17194     17196
     17193     17191     17194     17197     17194     17197     17200     17201
     17194     17197     17200     17202     17194     17197     17200     17203
     17195     17194     17197     17198     17195     17194     17197     17199
     17195     17194     17197     17200     17196     17194     17197     17198
     17196     17194     17197     17199     17196     17194     17197     17200
     17197     17200     17203     17204     17197     17200     17203     17205
     17197     17200     17203     17206     17198     17197     17200     17201
     17198     17197     17200     17202     17198     17197     17200     17203
     17199     17197     17200     17201     17199     17197     17200     17202
     17199     17197     17200     17203     17200     17203     17206     17207
     17200     17203     17206     17208     17200     17203     17206     17209
     17201     17200     17203     17204     17201     17200     17203     17205
     17201     17200     17203     17206     17202     17200     17203     17204
     17202     17200     17203     17205     17202     17200     17203     17206
     17203     17206     17209     17210     17203     17206     17209     17211
     17203     17206     17209     17212     17204     17203     17206     17207
     17204     17203     17206     17208     17204     17203     17206     17209
     17205     17203     17206     17207     17205     17203     17206     17208
     17205     17203     17206     17209     17206     17209     17212     17213
     17206     17209     17212     17214     17206     17209     17212     17215
     17207     17206     17209     17210     17207     17206     17209     17211
     17207     17206     17209     17212     17208     17206     17209     17210
     17208     17206     17209     17211     17208     17206     17209     17212
     17209     17212     17215     17216     17209     17212     17215     17217
     17209     17212     17215     17218     17210     17209     17212     17213
     17210     17209     17212     17214     17210     17209     17212     17215
     17211     17209     17212     17213     17211     17209     17212     17214
     17211     17209     17212     17215     17212     17215     17218     17219
     17212     17215     17218     17220     17212     17215     17218     17221
     17213     17212     17215     17216     17213     17212     17215     17217
     17213     17212     17215     17218     17214     17212     17215     17216
     17214     17212     17215     17217     17214     17212     17215     17218
     17216     17215     17218     17219     17216     17215     17218     17220
     17216     17215     17218     17221     17217     17215     17218     17219
     17217     17215     17218     17220     17217     17215     17218     17221
     17222     17226     17229     17230     17222     17226     17229     17260
     17222     17268     17265     17260     17222     17268     17265     17266
     17222     17268     17265     17267     17223     17222     17224     17225
     17223     17222     17226     17227     17223     17222     17226     17228
     17223     17222     17226     17229     17223     17222     17268     17265
     17223     17222     17268     17269     17223     17222     17268     17270
     17224     17222     17226     17227     17224     17222     17226     17228
     17224     17222     17226     17229     17224     17222     17268     17265
     17224     17222     17268     17269     17224     17222     17268     17270
     17225     17224     17222     17226     17225     17224     17222     17268
     17226     17222     17268     17265     17226     17222     17268     17269
     17226     17222     17268     17270     17226     17229     17230     17231
     17226     17229     17230     17232     17226     17229     17260     17258
     17226     17229     17260     17261     17226     17229     17260     17265
     17227     17226     17222     17268     17227     17226     17229     17230
     17227     17226     17229     17260     17228     17226     17222     17268
     17228     17226     17229     17230     17228     17226     17229     17260
     17229     17226     17222     17268     17229     17230     17232     17233
     17229     17230     17232     17234     17229     17230     17232     17235
     17229     17260     17258     17235     17229     17260     17258     17255
     17229     17260     17258     17259     17229     17260     17261     17262
     17229     17260     17261     17263     17229     17260     17261     17264
     17229     17260     17265     17266     17229     17260     17265     17267
     17229     17260     17265     17268     17230     17229     17260     17258
     17230     17229     17260     17261     17230     17229     17260     17265
     17230     17232     17235     17236     17230     17232     17235     17237
     17230     17232     17235     17258     17231     17230     17229     17260
     17231     17230     17232     17233     17231     17230     17232     17234
     17231     17230     17232     17235     17232     17230     17229     17260
     17232     17235     17237     17238     17232     17235     17237     17239
     17232     17235     17237     17247     17232     17235     17258     17255
     17232     17235     17258     17259     17232     17235     17258     17260
     17233     17232     17235     17236     17233     17232     17235     17237
     17233     17232     17235     17258     17234     17232     17235     17236
     17234     17232     17235     17237     17234     17232     17235     17258
     17235     17237     17239     17240     17235     17237     17239     17241
     17235     17237     17239     17242     17235     17237     17247     17245
     17235     17237     17247     17248     17235     17237     17247     17252
     17235     17258     17255     17252     17235     17258     17255     17256
     17235     17258     17255     17257     17235     17258     17260     17261
     17235     17258     17260     17265     17236     17235     17237     17238
     17236     17235     17237     17239     17236     17235     17237     17247
     17236     17235     17258     17255     17236     17235     17258     17259
     17236     17235     17258     17260     17237     17235     17258     17255
     17237     17235     17258     17259     17237     17235     17258     17260
     17237     17239     17242     17243     17237     17239     17242     17244
     17237     17239     17242     17245     17237     17247     17245     17242
     17237     17247     17245     17246     17237     17247     17245     17271
     17237     17247     17248     17249     17237     17247     17248     17250
     17237     17247     17248     17251     17237     17247     17252     17253
     17237     17247     17252     17254     17237     17247     17252     17255
     17238     17237     17235     17258     17238     17237     17239     17240
     17238     17237     17239     17241     17238     17237     17239     17242
     17238     17237     17247     17245     17238     17237     17247     17248
     17238     17237     17247     17252     17239     17237     17235     17258
     17239     17237     17247     17245     17239     17237     17247     17248
     17239     17237     17247     17252     17239     17242     17245     17246
     17239     17242     17245     17247     17239     17242     17245     17271
     17240     17239     17237     17247     17240     17239     17242     17243
     17240     17239     17242     17244     17240     17239     17242     17245
     17241     17239     17237     17247     17241     17239     17242     17243
     17241     17239     17242     17244     17241     17239     17242     17245
     17242     17239     17237     17247     17242     17245     17247     17248
     17242     17245     17247     17252     17242     17245     17271     17272
     17242     17245     17271     17273     17242     17245     17271     17277
     17243     17242     17245     17246     17243     17242     17245     17247
     17243     17242     17245     17271     17244     17242     17245     17246
     17244     17242     17245     17247     17244     17242     17245     17271
     17245     17247     17248     17249     17245     17247     17248     17250
     17245     17247     17248     17251     17245     17247     17252     17253
     17245     17247     17252     17254     17245     17247     17252     17255
     17245     17271     17273     17274     17245     17271     17273     17275
     17245     17271     17273     17276     17245     17271     17277     17278
     17245     17271     17277     17279     17245     17271     17277     17280
     17246     17245     17247     17248     17246     17245     17247     17252
     17246     17245     17271     17272     17246     17245     17271     17273
     17246     17245     17271     17277     17247     17237     17235     17258
     17247     17245     17271     17272     17247     17245     17271     17273
     17247     17245     17271     17277     17247     17252     17255     17256
     17247     17252     17255     17257     17247     17252     17255     17258
     17248     17247     17245     17271     17248     17247     17252     17253
     17248     17247     17252     17254     17248     17247     17252     17255
     17249     17248     17247     17252     17250     17248     17247     17252
     17251     17248     17247     17252     17252     17247     17245     17271
     17252     17255     17258     17259     17252     17255     17258     17260
     17253     17252     17255     17256     17253     17252     17255     17257
     17253     17252     17255     17258     17254     17252     17255     17256
     17254     17252     17255     17257     17254     17252     17255     17258
     17255     17258     17260     17261     17255     17258     17260     17265
     17256     17255     17258     17259     17256     17255     17258     17260
     17257     17255     17258     17259     17257     17255     17258     17260
     17258     17260     17261     17262     17258     17260     17261     17263
     17258     17260     17261     17264     17258     17260     17265     17266
     17258     17260     17265     17267     17258     17260     17265     17268
     17259     17258     17260     17261     17259     17258     17260     17265
     17260     17265     17268     17269     17260     17265     17268     17270
     17261     17260     17265     17266     17261     17260     17265     17267
     17261     17260     17265     17268     17262     17261     17260     17265
     17263     17261     17260     17265     17264     17261     17260     17265
     17266     17265     17268     17269     17266     17265     17268     17270
     17267     17265     17268     17269     17267     17265     17268     17270
     17271     17277     17280     17281     17271     17277     17280     17282
     17271     17277     17280     17283     17272     17271     17273     17274
     17272     17271     17273     17275     17272     17271     17273     17276
     17272     17271     17277     17278     17272     17271     17277     17279
     17272     17271     17277     17280     17273     17271     17277     17278
     17273     17271     17277     17279     17273     17271     17277     17280
     17274     17273     17271     17277     17275     17273     17271     17277
     17276     17273     17271     17277     17277     17280     17283     17284
     17277     17280     17283     17285     17277     17280     17283     17286
     17278     17277     17280     17281     17278     17277     17280     17282
     17278     17277     17280     17283     17279     17277     17280     17281
     17279     17277     17280     17282     17279     17277     17280     17283
     17280     17283     17286     17287     17280     17283     17286     17288
     17280     17283     17286     17292     17281     17280     17283     17284
     17281     17280     17283     17285     17281     17280     17283     17286
     17282     17280     17283     17284     17282     17280     17283     17285
     17282     17280     17283     17286     17283     17286     17288     17289
     17283     17286     17288     17290     17283     17286     17288     17291
     17283     17286     17292     17293     17283     17286     17292     17294
     17283     17286     17292     17295     17284     17283     17286     17287
     17284     17283     17286     17288     17284     17283     17286     17292
     17285     17283     17286     17287     17285     17283     17286     17288
     17285     17283     17286     17292     17287     17286     17288     17289
     17287     17286     17288     17290     17287     17286     17288     17291
     17287     17286     17292     17293     17287     17286     17292     17294
     17287     17286     17292     17295     17288     17286     17292     17293
     17288     17286     17292     17294     17288     17286     17292     17295
     17289     17288     17286     17292     17290     17288     17286     17292
     17291     17288     17286     17292     17296     17300     17303     17304
     17296     17300     17303     17305     17296     17300     17303     17309
     17297     17296     17300     17301     17297     17296     17300     17302
     17297     17296     17300     17303     17298     17296     17300     17301
     17298     17296     17300     17302     17298     17296     17300     17303
     17299     17296     17300     17301     17299     17296     17300     17302
     17299     17296     17300     17303     17300     17303     17309     17306
     17301     17300     17303     17304     17301     17300     17303     17305
     17301     17300     17303     17309     17302     17300     17303     17304
     17302     17300     17303     17305     17302     17300     17303     17309
     17303     17309     17306     17307     17303     17309     17306     17308
     17303     17309     17306     17310     17304     17303     17309     17306
     17305     17303     17309     17306     17306     17310     17311     17312
     17306     17310     17311     17313     17306     17310     17311     17314
     17307     17306     17310     17311     17308     17306     17310     17311
     17309     17306     17310     17311     17310     17311     17314     17315
     17310     17311     17314     17316     17310     17311     17314     17322
     17311     17314     17316     17317     17311     17314     17322     17323
     17311     17314     17322     17324     17311     17314     17322     17325
     17312     17311     17314     17315     17312     17311     17314     17316
     17312     17311     17314     17322     17313     17311     17314     17315
     17313     17311     17314     17316     17313     17311     17314     17322
     17314     17316     17317     17318     17314     17316     17317     17319
     17314     17322     17325     17326     17315     17314     17316     17317
     17315     17314     17322     17323     17315     17314     17322     17324
     17315     17314     17322     17325     17316     17314     17322     17323
     17316     17314     17322     17324     17316     17314     17322     17325
     17316     17317     17319     17320     17316     17317     17319     17321
     17316     17317     17319     17331     17317     17316     17314     17322
     17317     17319     17331     17332     17317     17319     17331     17333
     17317     17319     17331     17334     17318     17317     17319     17320
     17318     17317     17319     17321     17318     17317     17319     17331
     17319     17331     17334     17335     17319     17331     17334     17336
     17319     17331     17334     17337     17320     17319     17331     17332
     17320     17319     17331     17333     17320     17319     17331     17334
     17321     17319     17331     17332     17321     17319     17331     17333
     17321     17319     17331     17334     17322     17325     17326     17327
     17322     17325     17326     17328     17323     17322     17325     17326
     17324     17322     17325     17326     17325     17326     17328     17329
     17325     17326     17328     17330     17325     17326     17328     17378
     17326     17328     17378     17379     17326     17328     17378     17380
     17326     17328     17378     17381     17327     17326     17328     17329
     17327     17326     17328     17330     17327     17326     17328     17378
     17328     17378     17381     17382     17328     17378     17381     17383
     17328     17378     17381     17384     17329     17328     17378     17379
     17329     17328     17378     17380     17329     17328     17378     17381
     17330     17328     17378     17379     17330     17328     17378     17380
     17330     17328     17378     17381     17331     17334     17337     17338
     17331     17334     17337     17339     17331     17334     17337     17340
     17332     17331     17334     17335     17332     17331     17334     17336
     17332     17331     17334     17337     17333     17331     17334     17335
     17333     17331     17334     17336     17333     17331     17334     17337
     17334     17337     17340     17341     17334     17337     17340     17342
     17334     17337     17340     17343     17335     17334     17337     17338
     17335     17334     17337     17339     17335     17334     17337     17340
     17336     17334     17337     17338     17336     17334     17337     17339
     17336     17334     17337     17340     17337     17340     17343     17344
     17337     17340     17343     17345     17337     17340     17343     17346
     17338     17337     17340     17341     17338     17337     17340     17342
     17338     17337     17340     17343     17339     17337     17340     17341
     17339     17337     17340     17342     17339     17337     17340     17343
     17340     17343     17346     17347     17340     17343     17346     17348
     17340     17343     17346     17349     17341     17340     17343     17344
     17341     17340     17343     17345     17341     17340     17343     17346
     17342     17340     17343     17344     17342     17340     17343     17345
     17342     17340     17343     17346     17343     17346     17349     17350
     17343     17346     17349     17351     17344     17343     17346     17347
     17344     17343     17346     17348     17344     17343     17346     17349
     17345     17343     17346     17347     17345     17343     17346     17348
     17345     17343     17346     17349     17346     17349     17351     17352
     17346     17349     17351     17353     17347     17346     17349     17350
     17347     17346     17349     17351     17348     17346     17349     17350
     17348     17346     17349     17351     17349     17351     17353     17354
     17349     17351     17353     17355     17349     17351     17353     17356
     17350     17349     17351     17352     17350     17349     17351     17353
     17351     17353     17356     17357     17351     17353     17356     17358
     17351     17353     17356     17359     17352     17351     17353     17354
     17352     17351     17353     17355     17352     17351     17353     17356
     17353     17356     17359     17360     17353     17356     17359     17361
     17353     17356     17359     17362     17354     17353     17356     17357
     17354     17353     17356     17358     17354     17353     17356     17359
     17355     17353     17356     17357     17355     17353     17356     17358
     17355     17353     17356     17359     17356     17359     17362     17363
     17356     17359     17362     17364     17356     17359     17362     17365
     17357     17356     17359     17360     17357     17356     17359     17361
     17357     17356     17359     17362     17358     17356     17359     17360
     17358     17356     17359     17361     17358     17356     17359     17362
     17359     17362     17365     17366     17359     17362     17365     17367
     17359     17362     17365     17368     17360     17359     17362     17363
     17360     17359     17362     17364     17360     17359     17362     17365
     17361     17359     17362     17363     17361     17359     17362     17364
     17361     17359     17362     17365     17362     17365     17368     17369
     17362     17365     17368     17370     17362     17365     17368     17371
     17363     17362     17365     17366     17363     17362     17365     17367
     17363     17362     17365     17368     17364     17362     17365     17366
     17364     17362     17365     17367     17364     17362     17365     17368
     17365     17368     17371     17372     17365     17368     17371     17373
     17365     17368     17371     17374     17366     17365     17368     17369
     17366     17365     17368     17370     17366     17365     17368     17371
     17367     17365     17368     17369     17367     17365     17368     17370
     17367     17365     17368     17371     17368     17371     17374     17375
     17368     17371     17374     17376     17368     17371     17374     17377
     17369     17368     17371     17372     17369     17368     17371     17373
     17369     17368     17371     17374     17370     17368     17371     17372
     17370     17368     17371     17373     17370     17368     17371     17374
     17372     17371     17374     17375     17372     17371     17374     17376
     17372     17371     17374     17377     17373     17371     17374     17375
     17373     17371     17374     17376     17373     17371     17374     17377
     17378     17381     17384     17385     17378     17381     17384     17386
     17378     17381     17384     17387     17379     17378     17381     17382
     17379     17378     17381     17383     17379     17378     17381     17384
     17380     17378     17381     17382     17380     17378     17381     17383
     17380     17378     17381     17384     17381     17384     17387     17388
     17381     17384     17387     17389     17381     17384     17387     17390
     17382     17381     17384     17385     17382     17381     17384     17386
     17382     17381     17384     17387     17383     17381     17384     17385
     17383     17381     17384     17386     17383     17381     17384     17387
     17384     17387     17390     17391     17384     17387     17390     17392
     17384     17387     17390     17393     17385     17384     17387     17388
     17385     17384     17387     17389     17385     17384     17387     17390
     17386     17384     17387     17388     17386     17384     17387     17389
     17386     17384     17387     17390     17387     17390     17393     17394
     17387     17390     17393     17395     17387     17390     17393     17396
     17388     17387     17390     17391     17388     17387     17390     17392
     17388     17387     17390     17393     17389     17387     17390     17391
     17389     17387     17390     17392     17389     17387     17390     17393
     17390     17393     17396     17397     17390     17393     17396     17398
     17390     17393     17396     17399     17391     17390     17393     17394
     17391     17390     17393     17395     17391     17390     17393     17396
     17392     17390     17393     17394     17392     17390     17393     17395
     17392     17390     17393     17396     17393     17396     17399     17400
     17393     17396     17399     17401     17393     17396     17399     17402
     17394     17393     17396     17397     17394     17393     17396     17398
     17394     17393     17396     17399     17395     17393     17396     17397
     17395     17393     17396     17398     17395     17393     17396     17399
     17396     17399     17402     17403     17396     17399     17402     17404
     17396     17399     17402     17405     17397     17396     17399     17400
     17397     17396     17399     17401     17397     17396     17399     17402
     17398     17396     17399     17400     17398     17396     17399     17401
     17398     17396     17399     17402     17399     17402     17405     17406
     17399     17402     17405     17407     17399     17402     17405     17408
     17400     17399     17402     17403     17400     17399     17402     17404
     17400     17399     17402     17405     17401     17399     17402     17403
     17401     17399     17402     17404     17401     17399     17402     17405
     17402     17405     17408     17409     17402     17405     17408     17410
     17402     17405     17408     17411     17403     17402     17405     17406
     17403     17402     17405     17407     17403     17402     17405     17408
     17404     17402     17405     17406     17404     17402     17405     17407
     17404     17402     17405     17408     17405     17408     17411     17412
     17405     17408     17411     17413     17405     17408     17411     17414
     17406     17405     17408     17409     17406     17405     17408     17410
     17406     17405     17408     17411     17407     17405     17408     17409
     17407     17405     17408     17410     17407     17405     17408     17411
     17408     17411     17414     17415     17408     17411     17414     17416
     17408     17411     17414     17417     17409     17408     17411     17412
     17409     17408     17411     17413     17409     17408     17411     17414
     17410     17408     17411     17412     17410     17408     17411     17413
     17410     17408     17411     17414     17411     17414     17417     17418
     17411     17414     17417     17419     17411     17414     17417     17420
     17412     17411     17414     17415     17412     17411     17414     17416
     17412     17411     17414     17417     17413     17411     17414     17415
     17413     17411     17414     17416     17413     17411     17414     17417
     17414     17417     17420     17421     17414     17417     17420     17422
     17414     17417     17420     17423     17415     17414     17417     17418
     17415     17414     17417     17419     17415     17414     17417     17420
     17416     17414     17417     17418     17416     17414     17417     17419
     17416     17414     17417     17420     17417     17420     17423     17424
     17417     17420     17423     17425     17417     17420     17423     17426
     17418     17417     17420     17421     17418     17417     17420     17422
     17418     17417     17420     17423     17419     17417     17420     17421
     17419     17417     17420     17422     17419     17417     17420     17423
     17421     17420     17423     17424     17421     17420     17423     17425
     17421     17420     17423     17426     17422     17420     17423     17424
     17422     17420     17423     17425     17422     17420     17423     17426
     17427     17428     17443     17444     17427     17428     17443     17445
     17427     17428     17443     17449     17428     17427     17431     17432
     17428     17427     17431     17433     17428     17427     17431     17434
     17428     17427     17435     17436     17428     17427     17435     17437
     17428     17427     17435     17438     17428     17427     17439     17440
     17428     17427     17439     17441     17428     17427     17439     17442
     17428     17443     17449     17446     17429     17428     17427     17431
     17429     17428     17427     17435     17429     17428     17427     17439
     17429     17428     17443     17444     17429     17428     17443     17445
     17429     17428     17443     17449     17430     17428     17427     17431
     17430     17428     17427     17435     17430     17428     17427     17439
     17430     17428     17443     17444     17430     17428     17443     17445
     17430     17428     17443     17449     17431     17427     17428     17443
     17431     17427     17435     17436     17431     17427     17435     17437
     17431     17427     17435     17438     17431     17427     17439     17440
     17431     17427     17439     17441     17431     17427     17439     17442
     17432     17431     17427     17435     17432     17431     17427     17439
     17433     17431     17427     17435     17433     17431     17427     17439
     17434     17431     17427     17435     17434     17431     17427     17439
     17435     17427     17428     17443     17435     17427     17439     17440
     17435     17427     17439     17441     17435     17427     17439     17442
     17436     17435     17427     17439     17437     17435     17427     17439
     17438     17435     17427     17439     17439     17427     17428     17443
     17443     17449     17446     17447     17443     17449     17446     17448
     17443     17449     17446     17450     17444     17443     17449     17446
     17445     17443     17449     17446     17446     17450     17451     17452
     17446     17450     17451     17453     17446     17450     17451     17454
     17447     17446     17450     17451     17448     17446     17450     17451
     17449     17446     17450     17451     17450     17451     17454     17455
     17450     17451     17454     17456     17450     17451     17454     17462
     17451     17454     17456     17457     17451     17454     17462     17463
     17451     17454     17462     17464     17451     17454     17462     17465
     17452     17451     17454     17455     17452     17451     17454     17456
     17452     17451     17454     17462     17453     17451     17454     17455
     17453     17451     17454     17456     17453     17451     17454     17462
     17454     17456     17457     17458     17454     17456     17457     17459
     17454     17462     17465     17466     17455     17454     17456     17457
     17455     17454     17462     17463     17455     17454     17462     17464
     17455     17454     17462     17465     17456     17454     17462     17463
     17456     17454     17462     17464     17456     17454     17462     17465
     17456     17457     17459     17460     17456     17457     17459     17461
     17456     17457     17459     17471     17457     17456     17454     17462
     17457     17459     17471     17472     17457     17459     17471     17473
     17457     17459     17471     17474     17458     17457     17459     17460
     17458     17457     17459     17461     17458     17457     17459     17471
     17459     17471     17474     17475     17459     17471     17474     17476
     17459     17471     17474     17477     17460     17459     17471     17472
     17460     17459     17471     17473     17460     17459     17471     17474
     17461     17459     17471     17472     17461     17459     17471     17473
     17461     17459     17471     17474     17462     17465     17466     17467
     17462     17465     17466     17468     17463     17462     17465     17466
     17464     17462     17465     17466     17465     17466     17468     17469
     17465     17466     17468     17470     17465     17466     17468     17518
     17466     17468     17518     17519     17466     17468     17518     17520
     17466     17468     17518     17521     17467     17466     17468     17469
     17467     17466     17468     17470     17467     17466     17468     17518
     17468     17518     17521     17522     17468     17518     17521     17523
     17468     17518     17521     17524     17469     17468     17518     17519
     17469     17468     17518     17520     17469     17468     17518     17521
     17470     17468     17518     17519     17470     17468     17518     17520
     17470     17468     17518     17521     17471     17474     17477     17478
     17471     17474     17477     17479     17471     17474     17477     17480
     17472     17471     17474     17475     17472     17471     17474     17476
     17472     17471     17474     17477     17473     17471     17474     17475
     17473     17471     17474     17476     17473     17471     17474     17477
     17474     17477     17480     17481     17474     17477     17480     17482
     17474     17477     17480     17483     17475     17474     17477     17478
     17475     17474     17477     17479     17475     17474     17477     17480
     17476     17474     17477     17478     17476     17474     17477     17479
     17476     17474     17477     17480     17477     17480     17483     17484
     17477     17480     17483     17485     17477     17480     17483     17486
     17478     17477     17480     17481     17478     17477     17480     17482
     17478     17477     17480     17483     17479     17477     17480     17481
     17479     17477     17480     17482     17479     17477     17480     17483
     17480     17483     17486     17487     17480     17483     17486     17488
     17480     17483     17486     17489     17481     17480     17483     17484
     17481     17480     17483     17485     17481     17480     17483     17486
     17482     17480     17483     17484     17482     17480     17483     17485
     17482     17480     17483     17486     17483     17486     17489     17490
     17483     17486     17489     17491     17484     17483     17486     17487
     17484     17483     17486     17488     17484     17483     17486     17489
     17485     17483     17486     17487     17485     17483     17486     17488
     17485     17483     17486     17489     17486     17489     17491     17492
     17486     17489     17491     17493     17487     17486     17489     17490
     17487     17486     17489     17491     17488     17486     17489     17490
     17488     17486     17489     17491     17489     17491     17493     17494
     17489     17491     17493     17495     17489     17491     17493     17496
     17490     17489     17491     17492     17490     17489     17491     17493
     17491     17493     17496     17497     17491     17493     17496     17498
     17491     17493     17496     17499     17492     17491     17493     17494
     17492     17491     17493     17495     17492     17491     17493     17496
     17493     17496     17499     17500     17493     17496     17499     17501
     17493     17496     17499     17502     17494     17493     17496     17497
     17494     17493     17496     17498     17494     17493     17496     17499
     17495     17493     17496     17497     17495     17493     17496     17498
     17495     17493     17496     17499     17496     17499     17502     17503
     17496     17499     17502     17504     17496     17499     17502     17505
     17497     17496     17499     17500     17497     17496     17499     17501
     17497     17496     17499     17502     17498     17496     17499     17500
     17498     17496     17499     17501     17498     17496     17499     17502
     17499     17502     17505     17506     17499     17502     17505     17507
     17499     17502     17505     17508     17500     17499     17502     17503
     17500     17499     17502     17504     17500     17499     17502     17505
     17501     17499     17502     17503     17501     17499     17502     17504
     17501     17499     17502     17505     17502     17505     17508     17509
     17502     17505     17508     17510     17502     17505     17508     17511
     17503     17502     17505     17506     17503     17502     17505     17507
     17503     17502     17505     17508     17504     17502     17505     17506
     17504     17502     17505     17507     17504     17502     17505     17508
     17505     17508     17511     17512     17505     17508     17511     17513
     17505     17508     17511     17514     17506     17505     17508     17509
     17506     17505     17508     17510     17506     17505     17508     17511
     17507     17505     17508     17509     17507     17505     17508     17510
     17507     17505     17508     17511     17508     17511     17514     17515
     17508     17511     17514     17516     17508     17511     17514     17517
     17509     17508     17511     17512     17509     17508     17511     17513
     17509     17508     17511     17514     17510     17508     17511     17512
     17510     17508     17511     17513     17510     17508     17511     17514
     17512     17511     17514     17515     17512     17511     17514     17516
     17512     17511     17514     17517     17513     17511     17514     17515
     17513     17511     17514     17516     17513     17511     17514     17517
     17518     17521     17524     17525     17518     17521     17524     17526
     17518     17521     17524     17527     17519     17518     17521     17522
     17519     17518     17521     17523     17519     17518     17521     17524
     17520     17518     17521     17522     17520     17518     17521     17523
     17520     17518     17521     17524     17521     17524     17527     17528
     17521     17524     17527     17529     17521     17524     17527     17530
     17522     17521     17524     17525     17522     17521     17524     17526
     17522     17521     17524     17527     17523     17521     17524     17525
     17523     17521     17524     17526     17523     17521     17524     17527
     17524     17527     17530     17531     17524     17527     17530     17532
     17524     17527     17530     17533     17525     17524     17527     17528
     17525     17524     17527     17529     17525     17524     17527     17530
     17526     17524     17527     17528     17526     17524     17527     17529
     17526     17524     17527     17530     17527     17530     17533     17534
     17527     17530     17533     17535     17527     17530     17533     17536
     17528     17527     17530     17531     17528     17527     17530     17532
     17528     17527     17530     17533     17529     17527     17530     17531
     17529     17527     17530     17532     17529     17527     17530     17533
     17530     17533     17536     17537     17530     17533     17536     17538
     17530     17533     17536     17539     17531     17530     17533     17534
     17531     17530     17533     17535     17531     17530     17533     17536
     17532     17530     17533     17534     17532     17530     17533     17535
     17532     17530     17533     17536     17533     17536     17539     17540
     17533     17536     17539     17541     17533     17536     17539     17542
     17534     17533     17536     17537     17534     17533     17536     17538
     17534     17533     17536     17539     17535     17533     17536     17537
     17535     17533     17536     17538     17535     17533     17536     17539
     17536     17539     17542     17543     17536     17539     17542     17544
     17536     17539     17542     17545     17537     17536     17539     17540
     17537     17536     17539     17541     17537     17536     17539     17542
     17538     17536     17539     17540     17538     17536     17539     17541
     17538     17536     17539     17542     17539     17542     17545     17546
     17539     17542     17545     17547     17539     17542     17545     17548
     17540     17539     17542     17543     17540     17539     17542     17544
     17540     17539     17542     17545     17541     17539     17542     17543
     17541     17539     17542     17544     17541     17539     17542     17545
     17542     17545     17548     17549     17542     17545     17548     17550
     17542     17545     17548     17551     17543     17542     17545     17546
     17543     17542     17545     17547     17543     17542     17545     17548
     17544     17542     17545     17546     17544     17542     17545     17547
     17544     17542     17545     17548     17545     17548     17551     17552
     17545     17548     17551     17553     17545     17548     17551     17554
     17546     17545     17548     17549     17546     17545     17548     17550
     17546     17545     17548     17551     17547     17545     17548     17549
     17547     17545     17548     17550     17547     17545     17548     17551
     17548     17551     17554     17555     17548     17551     17554     17556
     17548     17551     17554     17557     17549     17548     17551     17552
     17549     17548     17551     17553     17549     17548     17551     17554
     17550     17548     17551     17552     17550     17548     17551     17553
     17550     17548     17551     17554     17551     17554     17557     17558
     17551     17554     17557     17559     17551     17554     17557     17560
     17552     17551     17554     17555     17552     17551     17554     17556
     17552     17551     17554     17557     17553     17551     17554     17555
     17553     17551     17554     17556     17553     17551     17554     17557
     17555     17554     17557     17558     17555     17554     17557     17559
     17555     17554     17557     17560     17556     17554     17557     17558
     17556     17554     17557     17559     17556     17554     17557     17560
     17561     17565     17568     17569     17561     17565     17568     17570
     17561     17565     17568     17574     17562     17561     17565     17566
     17562     17561     17565     17567     17562     17561     17565     17568
     17563     17561     17565     17566     17563     17561     17565     17567
     17563     17561     17565     17568     17564     17561     17565     17566
     17564     17561     17565     17567     17564     17561     17565     17568
     17565     17568     17574     17571     17566     17565     17568     17569
     17566     17565     17568     17570     17566     17565     17568     17574
     17567     17565     17568     17569     17567     17565     17568     17570
     17567     17565     17568     17574     17568     17574     17571     17572
     17568     17574     17571     17573     17568     17574     17571     17575
     17569     17568     17574     17571     17570     17568     17574     17571
     17571     17575     17576     17577     17571     17575     17576     17578
     17571     17575     17576     17579     17572     17571     17575     17576
     17573     17571     17575     17576     17574     17571     17575     17576
     17575     17576     17579     17580     17575     17576     17579     17581
     17575     17576     17579     17587     17576     17579     17581     17582
     17576     17579     17587     17588     17576     17579     17587     17589
     17576     17579     17587     17590     17577     17576     17579     17580
     17577     17576     17579     17581     17577     17576     17579     17587
     17578     17576     17579     17580     17578     17576     17579     17581
     17578     17576     17579     17587     17579     17581     17582     17583
     17579     17581     17582     17584     17579     17587     17590     17591
     17580     17579     17581     17582     17580     17579     17587     17588
     17580     17579     17587     17589     17580     17579     17587     17590
     17581     17579     17587     17588     17581     17579     17587     17589
     17581     17579     17587     17590     17581     17582     17584     17585
     17581     17582     17584     17586     17581     17582     17584     17596
     17582     17581     17579     17587     17582     17584     17596     17597
     17582     17584     17596     17598     17582     17584     17596     17599
     17583     17582     17584     17585     17583     17582     17584     17586
     17583     17582     17584     17596     17584     17596     17599     17600
     17584     17596     17599     17601     17584     17596     17599     17602
     17585     17584     17596     17597     17585     17584     17596     17598
     17585     17584     17596     17599     17586     17584     17596     17597
     17586     17584     17596     17598     17586     17584     17596     17599
     17587     17590     17591     17592     17587     17590     17591     17593
     17588     17587     17590     17591     17589     17587     17590     17591
     17590     17591     17593     17594     17590     17591     17593     17595
     17590     17591     17593     17643     17591     17593     17643     17644
     17591     17593     17643     17645     17591     17593     17643     17646
     17592     17591     17593     17594     17592     17591     17593     17595
     17592     17591     17593     17643     17593     17643     17646     17647
     17593     17643     17646     17648     17593     17643     17646     17649
     17594     17593     17643     17644     17594     17593     17643     17645
     17594     17593     17643     17646     17595     17593     17643     17644
     17595     17593     17643     17645     17595     17593     17643     17646
     17596     17599     17602     17603     17596     17599     17602     17604
     17597     17596     17599     17600     17597     17596     17599     17601
     17597     17596     17599     17602     17598     17596     17599     17600
     17598     17596     17599     17601     17598     17596     17599     17602
     17599     17602     17604     17605     17599     17602     17604     17606
     17600     17599     17602     17603     17600     17599     17602     17604
     17601     17599     17602     17603     17601     17599     17602     17604
     17602     17604     17606     17607     17602     17604     17606     17608
     17602     17604     17606     17609     17603     17602     17604     17605
     17603     17602     17604     17606     17604     17606     17609     17610
     17604     17606     17609     17611     17605     17604     17606     17607
     17605     17604     17606     17608     17605     17604     17606     17609
     17606     17609     17611     17612     17606     17609     17611     17613
     17607     17606     17609     17610     17607     17606     17609     17611
     17608     17606     17609     17610     17608     17606     17609     17611
     17609     17611     17613     17614     17609     17611     17613     17615
     17609     17611     17613     17616     17610     17609     17611     17612
     17610     17609     17611     17613     17611     17613     17616     17617
     17611     17613     17616     17618     17612     17611     17613     17614
     17612     17611     17613     17615     17612     17611     17613     17616
     17613     17616     17618     17619     17613     17616     17618     17620
     17614     17613     17616     17617     17614     17613     17616     17618
     17615     17613     17616     17617     17615     17613     17616     17618
     17616     17618     17620     17621     17616     17618     17620     17622
     17616     17618     17620     17623     17617     17616     17618     17619
     17617     17616     17618     17620     17618     17620     17623     17624
     17618     17620     17623     17625     17619     17618     17620     17621
     17619     17618     17620     17622     17619     17618     17620     17623
     17620     17623     17625     17626     17620     17623     17625     17627
     17621     17620     17623     17624     17621     17620     17623     17625
     17622     17620     17623     17624     17622     17620     17623     17625
     17623     17625     17627     17628     17623     17625     17627     17629
     17623     17625     17627     17630     17624     17623     17625     17626
     17624     17623     17625     17627     17625     17627     17630     17631
     17625     17627     17630     17632     17625     17627     17630     17633
     17626     17625     17627     17628     17626     17625     17627     17629
     17626     17625     17627     17630     17627     17630     17633     17634
     17627     17630     17633     17635     17627     17630     17633     17636
     17628     17627     17630     17631     17628     17627     17630     17632
     17628     17627     17630     17633     17629     17627     17630     17631
     17629     17627     17630     17632     17629     17627     17630     17633
     17630     17633     17636     17637     17630     17633     17636     17638
     17630     17633     17636     17639     17631     17630     17633     17634
     17631     17630     17633     17635     17631     17630     17633     17636
     17632     17630     17633     17634     17632     17630     17633     17635
     17632     17630     17633     17636     17633     17636     17639     17640
     17633     17636     17639     17641     17633     17636     17639     17642
     17634     17633     17636     17637     17634     17633     17636     17638
     17634     17633     17636     17639     17635     17633     17636     17637
     17635     17633     17636     17638     17635     17633     17636     17639
     17637     17636     17639     17640     17637     17636     17639     17641
     17637     17636     17639     17642     17638     17636     17639     17640
     17638     17636     17639     17641     17638     17636     17639     17642
     17643     17646     17649     17650     17643     17646     17649     17651
     17643     17646     17649     17652     17644     17643     17646     17647
     17644     17643     17646     17648     17644     17643     17646     17649
     17645     17643     17646     17647     17645     17643     17646     17648
     17645     17643     17646     17649     17646     17649     17652     17653
     17646     17649     17652     17654     17646     17649     17652     17655
     17647     17646     17649     17650     17647     17646     17649     17651
     17647     17646     17649     17652     17648     17646     17649     17650
     17648     17646     17649     17651     17648     17646     17649     17652
     17649     17652     17655     17656     17649     17652     17655     17657
     17649     17652     17655     17658     17650     17649     17652     17653
     17650     17649     17652     17654     17650     17649     17652     17655
     17651     17649     17652     17653     17651     17649     17652     17654
     17651     17649     17652     17655     17652     17655     17658     17659
     17652     17655     17658     17660     17652     17655     17658     17661
     17653     17652     17655     17656     17653     17652     17655     17657
     17653     17652     17655     17658     17654     17652     17655     17656
     17654     17652     17655     17657     17654     17652     17655     17658
     17655     17658     17661     17662     17655     17658     17661     17663
     17655     17658     17661     17664     17656     17655     17658     17659
     17656     17655     17658     17660     17656     17655     17658     17661
     17657     17655     17658     17659     17657     17655     17658     17660
     17657     17655     17658     17661     17658     17661     17664     17665
     17658     17661     17664     17666     17658     17661     17664     17667
     17659     17658     17661     17662     17659     17658     17661     17663
     17659     17658     17661     17664     17660     17658     17661     17662
     17660     17658     17661     17663     17660     17658     17661     17664
     17661     17664     17667     17668     17661     17664     17667     17669
     17661     17664     17667     17670     17662     17661     17664     17665
     17662     17661     17664     17666     17662     17661     17664     17667
     17663     17661     17664     17665     17663     17661     17664     17666
     17663     17661     17664     17667     17664     17667     17670     17671
     17664     17667     17670     17672     17664     17667     17670     17673
     17665     17664     17667     17668     17665     17664     17667     17669
     17665     17664     17667     17670     17666     17664     17667     17668
     17666     17664     17667     17669     17666     17664     17667     17670
     17667     17670     17673     17674     17667     17670     17673     17675
     17667     17670     17673     17676     17668     17667     17670     17671
     17668     17667     17670     17672     17668     17667     17670     17673
     17669     17667     17670     17671     17669     17667     17670     17672
     17669     17667     17670     17673     17670     17673     17676     17677
     17670     17673     17676     17678     17670     17673     17676     17679
     17671     17670     17673     17674     17671     17670     17673     17675
     17671     17670     17673     17676     17672     17670     17673     17674
     17672     17670     17673     17675     17672     17670     17673     17676
     17673     17676     17679     17680     17673     17676     17679     17681
     17673     17676     17679     17682     17674     17673     17676     17677
     17674     17673     17676     17678     17674     17673     17676     17679
     17675     17673     17676     17677     17675     17673     17676     17678
     17675     17673     17676     17679     17676     17679     17682     17683
     17676     17679     17682     17684     17676     17679     17682     17685
     17677     17676     17679     17680     17677     17676     17679     17681
     17677     17676     17679     17682     17678     17676     17679     17680
     17678     17676     17679     17681     17678     17676     17679     17682
     17679     17682     17685     17686     17679     17682     17685     17687
     17679     17682     17685     17688     17680     17679     17682     17683
     17680     17679     17682     17684     17680     17679     17682     17685
     17681     17679     17682     17683     17681     17679     17682     17684
     17681     17679     17682     17685     17682     17685     17688     17689
     17682     17685     17688     17690     17682     17685     17688     17691
     17683     17682     17685     17686     17683     17682     17685     17687
     17683     17682     17685     17688     17684     17682     17685     17686
     17684     17682     17685     17687     17684     17682     17685     17688
     17686     17685     17688     17689     17686     17685     17688     17690
     17686     17685     17688     17691     17687     17685     17688     17689
     17687     17685     17688     17690     17687     17685     17688     17691
     17692     17693     17708     17709     17692     17693     17708     17710
     17692     17693     17708     17714     17693     17692     17696     17697
     17693     17692     17696     17698     17693     17692     17696     17699
     17693     17692     17700     17701     17693     17692     17700     17702
     17693     17692     17700     17703     17693     17692     17704     17705
     17693     17692     17704     17706     17693     17692     17704     17707
     17693     17708     17714     17711     17694     17693     17692     17696
     17694     17693     17692     17700     17694     17693     17692     17704
     17694     17693     17708     17709     17694     17693     17708     17710
     17694     17693     17708     17714     17695     17693     17692     17696
     17695     17693     17692     17700     17695     17693     17692     17704
     17695     17693     17708     17709     17695     17693     17708     17710
     17695     17693     17708     17714     17696     17692     17693     17708
     17696     17692     17700     17701     17696     17692     17700     17702
     17696     17692     17700     17703     17696     17692     17704     17705
     17696     17692     17704     17706     17696     17692     17704     17707
     17697     17696     17692     17700     17697     17696     17692     17704
     17698     17696     17692     17700     17698     17696     17692     17704
     17699     17696     17692     17700     17699     17696     17692     17704
     17700     17692     17693     17708     17700     17692     17704     17705
     17700     17692     17704     17706     17700     17692     17704     17707
     17701     17700     17692     17704     17702     17700     17692     17704
     17703     17700     17692     17704     17704     17692     17693     17708
     17708     17714     17711     17712     17708     17714     17711     17713
     17708     17714     17711     17715     17709     17708     17714     17711
     17710     17708     17714     17711     17711     17715     17716     17717
     17711     17715     17716     17718     17711     17715     17716     17719
     17712     17711     17715     17716     17713     17711     17715     17716
     17714     17711     17715     17716     17715     17716     17719     17720
     17715     17716     17719     17721     17715     17716     17719     17727
     17716     17719     17721     17722     17716     17719     17727     17728
     17716     17719     17727     17729     17716     17719     17727     17730
     17717     17716     17719     17720     17717     17716     17719     17721
     17717     17716     17719     17727     17718     17716     17719     17720
     17718     17716     17719     17721     17718     17716     17719     17727
     17719     17721     17722     17723     17719     17721     17722     17724
     17719     17727     17730     17731     17720     17719     17721     17722
     17720     17719     17727     17728     17720     17719     17727     17729
     17720     17719     17727     17730     17721     17719     17727     17728
     17721     17719     17727     17729     17721     17719     17727     17730
     17721     17722     17724     17725     17721     17722     17724     17726
     17721     17722     17724     17736     17722     17721     17719     17727
     17722     17724     17736     17737     17722     17724     17736     17738
     17722     17724     17736     17739     17723     17722     17724     17725
     17723     17722     17724     17726     17723     17722     17724     17736
     17724     17736     17739     17740     17724     17736     17739     17741
     17724     17736     17739     17742     17725     17724     17736     17737
     17725     17724     17736     17738     17725     17724     17736     17739
     17726     17724     17736     17737     17726     17724     17736     17738
     17726     17724     17736     17739     17727     17730     17731     17732
     17727     17730     17731     17733     17728     17727     17730     17731
     17729     17727     17730     17731     17730     17731     17733     17734
     17730     17731     17733     17735     17730     17731     17733     17783
     17731     17733     17783     17784     17731     17733     17783     17785
     17731     17733     17783     17786     17732     17731     17733     17734
     17732     17731     17733     17735     17732     17731     17733     17783
     17733     17783     17786     17787     17733     17783     17786     17788
     17733     17783     17786     17789     17734     17733     17783     17784
     17734     17733     17783     17785     17734     17733     17783     17786
     17735     17733     17783     17784     17735     17733     17783     17785
     17735     17733     17783     17786     17736     17739     17742     17743
     17736     17739     17742     17744     17737     17736     17739     17740
     17737     17736     17739     17741     17737     17736     17739     17742
     17738     17736     17739     17740     17738     17736     17739     17741
     17738     17736     17739     17742     17739     17742     17744     17745
     17739     17742     17744     17746     17740     17739     17742     17743
     17740     17739     17742     17744     17741     17739     17742     17743
     17741     17739     17742     17744     17742     17744     17746     17747
     17742     17744     17746     17748     17742     17744     17746     17749
     17743     17742     17744     17745     17743     17742     17744     17746
     17744     17746     17749     17750     17744     17746     17749     17751
     17745     17744     17746     17747     17745     17744     17746     17748
     17745     17744     17746     17749     17746     17749     17751     17752
     17746     17749     17751     17753     17747     17746     17749     17750
     17747     17746     17749     17751     17748     17746     17749     17750
     17748     17746     17749     17751     17749     17751     17753     17754
     17749     17751     17753     17755     17749     17751     17753     17756
     17750     17749     17751     17752     17750     17749     17751     17753
     17751     17753     17756     17757     17751     17753     17756     17758
     17752     17751     17753     17754     17752     17751     17753     17755
     17752     17751     17753     17756     17753     17756     17758     17759
     17753     17756     17758     17760     17754     17753     17756     17757
     17754     17753     17756     17758     17755     17753     17756     17757
     17755     17753     17756     17758     17756     17758     17760     17761
     17756     17758     17760     17762     17756     17758     17760     17763
     17757     17756     17758     17759     17757     17756     17758     17760
     17758     17760     17763     17764     17758     17760     17763     17765
     17759     17758     17760     17761     17759     17758     17760     17762
     17759     17758     17760     17763     17760     17763     17765     17766
     17760     17763     17765     17767     17761     17760     17763     17764
     17761     17760     17763     17765     17762     17760     17763     17764
     17762     17760     17763     17765     17763     17765     17767     17768
     17763     17765     17767     17769     17763     17765     17767     17770
     17764     17763     17765     17766     17764     17763     17765     17767
     17765     17767     17770     17771     17765     17767     17770     17772
     17765     17767     17770     17773     17766     17765     17767     17768
     17766     17765     17767     17769     17766     17765     17767     17770
     17767     17770     17773     17774     17767     17770     17773     17775
     17767     17770     17773     17776     17768     17767     17770     17771
     17768     17767     17770     17772     17768     17767     17770     17773
     17769     17767     17770     17771     17769     17767     17770     17772
     17769     17767     17770     17773     17770     17773     17776     17777
     17770     17773     17776     17778     17770     17773     17776     17779
     17771     17770     17773     17774     17771     17770     17773     17775
     17771     17770     17773     17776     17772     17770     17773     17774
     17772     17770     17773     17775     17772     17770     17773     17776
     17773     17776     17779     17780     17773     17776     17779     17781
     17773     17776     17779     17782     17774     17773     17776     17777
     17774     17773     17776     17778     17774     17773     17776     17779
     17775     17773     17776     17777     17775     17773     17776     17778
     17775     17773     17776     17779     17777     17776     17779     17780
     17777     17776     17779     17781     17777     17776     17779     17782
     17778     17776     17779     17780     17778     17776     17779     17781
     17778     17776     17779     17782     17783     17786     17789     17790
     17783     17786     17789     17791     17783     17786     17789     17792
     17784     17783     17786     17787     17784     17783     17786     17788
     17784     17783     17786     17789     17785     17783     17786     17787
     17785     17783     17786     17788     17785     17783     17786     17789
     17786     17789     17792     17793     17786     17789     17792     17794
     17786     17789     17792     17795     17787     17786     17789     17790
     17787     17786     17789     17791     17787     17786     17789     17792
     17788     17786     17789     17790     17788     17786     17789     17791
     17788     17786     17789     17792     17789     17792     17795     17796
     17789     17792     17795     17797     17789     17792     17795     17798
     17790     17789     17792     17793     17790     17789     17792     17794
     17790     17789     17792     17795     17791     17789     17792     17793
     17791     17789     17792     17794     17791     17789     17792     17795
     17792     17795     17798     17799     17792     17795     17798     17800
     17792     17795     17798     17801     17793     17792     17795     17796
     17793     17792     17795     17797     17793     17792     17795     17798
     17794     17792     17795     17796     17794     17792     17795     17797
     17794     17792     17795     17798     17795     17798     17801     17802
     17795     17798     17801     17803     17795     17798     17801     17804
     17796     17795     17798     17799     17796     17795     17798     17800
     17796     17795     17798     17801     17797     17795     17798     17799
     17797     17795     17798     17800     17797     17795     17798     17801
     17798     17801     17804     17805     17798     17801     17804     17806
     17798     17801     17804     17807     17799     17798     17801     17802
     17799     17798     17801     17803     17799     17798     17801     17804
     17800     17798     17801     17802     17800     17798     17801     17803
     17800     17798     17801     17804     17801     17804     17807     17808
     17801     17804     17807     17809     17801     17804     17807     17810
     17802     17801     17804     17805     17802     17801     17804     17806
     17802     17801     17804     17807     17803     17801     17804     17805
     17803     17801     17804     17806     17803     17801     17804     17807
     17804     17807     17810     17811     17804     17807     17810     17812
     17804     17807     17810     17813     17805     17804     17807     17808
     17805     17804     17807     17809     17805     17804     17807     17810
     17806     17804     17807     17808     17806     17804     17807     17809
     17806     17804     17807     17810     17807     17810     17813     17814
     17807     17810     17813     17815     17807     17810     17813     17816
     17808     17807     17810     17811     17808     17807     17810     17812
     17808     17807     17810     17813     17809     17807     17810     17811
     17809     17807     17810     17812     17809     17807     17810     17813
     17810     17813     17816     17817     17810     17813     17816     17818
     17810     17813     17816     17819     17811     17810     17813     17814
     17811     17810     17813     17815     17811     17810     17813     17816
     17812     17810     17813     17814     17812     17810     17813     17815
     17812     17810     17813     17816     17813     17816     17819     17820
     17813     17816     17819     17821     17813     17816     17819     17822
     17814     17813     17816     17817     17814     17813     17816     17818
     17814     17813     17816     17819     17815     17813     17816     17817
     17815     17813     17816     17818     17815     17813     17816     17819
     17816     17819     17822     17823     17816     17819     17822     17824
     17816     17819     17822     17825     17817     17816     17819     17820
     17817     17816     17819     17821     17817     17816     17819     17822
     17818     17816     17819     17820     17818     17816     17819     17821
     17818     17816     17819     17822     17819     17822     17825     17826
     17819     17822     17825     17827     17819     17822     17825     17828
     17820     17819     17822     17823     17820     17819     17822     17824
     17820     17819     17822     17825     17821     17819     17822     17823
     17821     17819     17822     17824     17821     17819     17822     17825
     17822     17825     17828     17829     17822     17825     17828     17830
     17822     17825     17828     17831     17823     17822     17825     17826
     17823     17822     17825     17827     17823     17822     17825     17828
     17824     17822     17825     17826     17824     17822     17825     17827
     17824     17822     17825     17828     17826     17825     17828     17829
     17826     17825     17828     17830     17826     17825     17828     17831
     17827     17825     17828     17829     17827     17825     17828     17830
     17827     17825     17828     17831     17832     17836     17838     17839
     17832     17836     17838     17840     17832     17836     17841     17842
     17832     17836     17841     17843     17832     17836     17841     17847
     17833     17832     17836     17837     17833     17832     17836     17838
     17833     17832     17836     17841     17834     17832     17836     17837
     17834     17832     17836     17838     17834     17832     17836     17841
     17835     17832     17836     17837     17835     17832     17836     17838
     17835     17832     17836     17841     17836     17841     17847     17844
     17837     17836     17838     17839     17837     17836     17838     17840
     17837     17836     17841     17842     17837     17836     17841     17843
     17837     17836     17841     17847     17838     17836     17841     17842
     17838     17836     17841     17843     17838     17836     17841     17847
     17839     17838     17836     17841     17840     17838     17836     17841
     17841     17847     17844     17845     17841     17847     17844     17846
     17841     17847     17844     17848     17842     17841     17847     17844
     17843     17841     17847     17844     17844     17848     17849     17850
     17844     17848     17849     17851     17844     17848     17849     17852
     17845     17844     17848     17849     17846     17844     17848     17849
     17847     17844     17848     17849     17848     17849     17852     17853
     17848     17849     17852     17854     17848     17849     17852     17860
     17849     17852     17854     17855     17849     17852     17860     17861
     17849     17852     17860     17862     17849     17852     17860     17863
     17850     17849     17852     17853     17850     17849     17852     17854
     17850     17849     17852     17860     17851     17849     17852     17853
     17851     17849     17852     17854     17851     17849     17852     17860
     17852     17854     17855     17856     17852     17854     17855     17857
     17852     17860     17863     17864     17853     17852     17854     17855
     17853     17852     17860     17861     17853     17852     17860     17862
     17853     17852     17860     17863     17854     17852     17860     17861
     17854     17852     17860     17862     17854     17852     17860     17863
     17854     17855     17857     17858     17854     17855     17857     17859
     17854     17855     17857     17869     17855     17854     17852     17860
     17855     17857     17869     17870     17855     17857     17869     17871
     17855     17857     17869     17872     17856     17855     17857     17858
     17856     17855     17857     17859     17856     17855     17857     17869
     17857     17869     17872     17873     17857     17869     17872     17874
     17857     17869     17872     17875     17858     17857     17869     17870
     17858     17857     17869     17871     17858     17857     17869     17872
     17859     17857     17869     17870     17859     17857     17869     17871
     17859     17857     17869     17872     17860     17863     17864     17865
     17860     17863     17864     17866     17861     17860     17863     17864
     17862     17860     17863     17864     17863     17864     17866     17867
     17863     17864     17866     17868     17863     17864     17866     17916
     17864     17866     17916     17917     17864     17866     17916     17918
     17864     17866     17916     17919     17865     17864     17866     17867
     17865     17864     17866     17868     17865     17864     17866     17916
     17866     17916     17919     17920     17866     17916     17919     17921
     17866     17916     17919     17922     17867     17866     17916     17917
     17867     17866     17916     17918     17867     17866     17916     17919
     17868     17866     17916     17917     17868     17866     17916     17918
     17868     17866     17916     17919     17869     17872     17875     17876
     17869     17872     17875     17877     17870     17869     17872     17873
     17870     17869     17872     17874     17870     17869     17872     17875
     17871     17869     17872     17873     17871     17869     17872     17874
     17871     17869     17872     17875     17872     17875     17877     17878
     17872     17875     17877     17879     17873     17872     17875     17876
     17873     17872     17875     17877     17874     17872     17875     17876
     17874     17872     17875     17877     17875     17877     17879     17880
     17875     17877     17879     17881     17875     17877     17879     17882
     17876     17875     17877     17878     17876     17875     17877     17879
     17877     17879     17882     17883     17877     17879     17882     17884
     17878     17877     17879     17880     17878     17877     17879     17881
     17878     17877     17879     17882     17879     17882     17884     17885
     17879     17882     17884     17886     17880     17879     17882     17883
     17880     17879     17882     17884     17881     17879     17882     17883
     17881     17879     17882     17884     17882     17884     17886     17887
     17882     17884     17886     17888     17882     17884     17886     17889
     17883     17882     17884     17885     17883     17882     17884     17886
     17884     17886     17889     17890     17884     17886     17889     17891
     17885     17884     17886     17887     17885     17884     17886     17888
     17885     17884     17886     17889     17886     17889     17891     17892
     17886     17889     17891     17893     17887     17886     17889     17890
     17887     17886     17889     17891     17888     17886     17889     17890
     17888     17886     17889     17891     17889     17891     17893     17894
     17889     17891     17893     17895     17889     17891     17893     17896
     17890     17889     17891     17892     17890     17889     17891     17893
     17891     17893     17896     17897     17891     17893     17896     17898
     17892     17891     17893     17894     17892     17891     17893     17895
     17892     17891     17893     17896     17893     17896     17898     17899
     17893     17896     17898     17900     17894     17893     17896     17897
     17894     17893     17896     17898     17895     17893     17896     17897
     17895     17893     17896     17898     17896     17898     17900     17901
     17896     17898     17900     17902     17896     17898     17900     17903
     17897     17896     17898     17899     17897     17896     17898     17900
     17898     17900     17903     17904     17898     17900     17903     17905
     17898     17900     17903     17906     17899     17898     17900     17901
     17899     17898     17900     17902     17899     17898     17900     17903
     17900     17903     17906     17907     17900     17903     17906     17908
     17900     17903     17906     17909     17901     17900     17903     17904
     17901     17900     17903     17905     17901     17900     17903     17906
     17902     17900     17903     17904     17902     17900     17903     17905
     17902     17900     17903     17906     17903     17906     17909     17910
     17903     17906     17909     17911     17903     17906     17909     17912
     17904     17903     17906     17907     17904     17903     17906     17908
     17904     17903     17906     17909     17905     17903     17906     17907
     17905     17903     17906     17908     17905     17903     17906     17909
     17906     17909     17912     17913     17906     17909     17912     17914
     17906     17909     17912     17915     17907     17906     17909     17910
     17907     17906     17909     17911     17907     17906     17909     17912
     17908     17906     17909     17910     17908     17906     17909     17911
     17908     17906     17909     17912     17910     17909     17912     17913
     17910     17909     17912     17914     17910     17909     17912     17915
     17911     17909     17912     17913     17911     17909     17912     17914
     17911     17909     17912     17915     17916     17919     17922     17923
     17916     17919     17922     17924     17916     17919     17922     17925
     17917     17916     17919     17920     17917     17916     17919     17921
     17917     17916     17919     17922     17918     17916     17919     17920
     17918     17916     17919     17921     17918     17916     17919     17922
     17919     17922     17925     17926     17919     17922     17925     17927
     17919     17922     17925     17928     17920     17919     17922     17923
     17920     17919     17922     17924     17920     17919     17922     17925
     17921     17919     17922     17923     17921     17919     17922     17924
     17921     17919     17922     17925     17922     17925     17928     17929
     17922     17925     17928     17930     17922     17925     17928     17931
     17923     17922     17925     17926     17923     17922     17925     17927
     17923     17922     17925     17928     17924     17922     17925     17926
     17924     17922     17925     17927     17924     17922     17925     17928
     17925     17928     17931     17932     17925     17928     17931     17933
     17925     17928     17931     17934     17926     17925     17928     17929
     17926     17925     17928     17930     17926     17925     17928     17931
     17927     17925     17928     17929     17927     17925     17928     17930
     17927     17925     17928     17931     17928     17931     17934     17935
     17928     17931     17934     17936     17928     17931     17934     17937
     17929     17928     17931     17932     17929     17928     17931     17933
     17929     17928     17931     17934     17930     17928     17931     17932
     17930     17928     17931     17933     17930     17928     17931     17934
     17931     17934     17937     17938     17931     17934     17937     17939
     17931     17934     17937     17940     17932     17931     17934     17935
     17932     17931     17934     17936     17932     17931     17934     17937
     17933     17931     17934     17935     17933     17931     17934     17936
     17933     17931     17934     17937     17934     17937     17940     17941
     17934     17937     17940     17942     17934     17937     17940     17943
     17935     17934     17937     17938     17935     17934     17937     17939
     17935     17934     17937     17940     17936     17934     17937     17938
     17936     17934     17937     17939     17936     17934     17937     17940
     17937     17940     17943     17944     17937     17940     17943     17945
     17937     17940     17943     17946     17938     17937     17940     17941
     17938     17937     17940     17942     17938     17937     17940     17943
     17939     17937     17940     17941     17939     17937     17940     17942
     17939     17937     17940     17943     17940     17943     17946     17947
     17940     17943     17946     17948     17940     17943     17946     17949
     17941     17940     17943     17944     17941     17940     17943     17945
     17941     17940     17943     17946     17942     17940     17943     17944
     17942     17940     17943     17945     17942     17940     17943     17946
     17943     17946     17949     17950     17943     17946     17949     17951
     17943     17946     17949     17952     17944     17943     17946     17947
     17944     17943     17946     17948     17944     17943     17946     17949
     17945     17943     17946     17947     17945     17943     17946     17948
     17945     17943     17946     17949     17946     17949     17952     17953
     17946     17949     17952     17954     17946     17949     17952     17955
     17947     17946     17949     17950     17947     17946     17949     17951
     17947     17946     17949     17952     17948     17946     17949     17950
     17948     17946     17949     17951     17948     17946     17949     17952
     17949     17952     17955     17956     17949     17952     17955     17957
     17949     17952     17955     17958     17950     17949     17952     17953
     17950     17949     17952     17954     17950     17949     17952     17955
     17951     17949     17952     17953     17951     17949     17952     17954
     17951     17949     17952     17955     17952     17955     17958     17959
     17952     17955     17958     17960     17952     17955     17958     17961
     17953     17952     17955     17956     17953     17952     17955     17957
     17953     17952     17955     17958     17954     17952     17955     17956
     17954     17952     17955     17957     17954     17952     17955     17958
     17955     17958     17961     17962     17955     17958     17961     17963
     17955     17958     17961     17964     17956     17955     17958     17959
     17956     17955     17958     17960     17956     17955     17958     17961
     17957     17955     17958     17959     17957     17955     17958     17960
     17957     17955     17958     17961     17959     17958     17961     17962
     17959     17958     17961     17963     17959     17958     17961     17964
     17960     17958     17961     17962     17960     17958     17961     17963
     17960     17958     17961     17964     17965     17969     17971     17972
     17965     17969     17973     17974     17965     17969     17973     17975
     17965     17969     17973     17977     17965     17985     17981     17977
     17965     17985     17981     17982     17965     17985     17981     17983
     17965     17985     17990     17987     17966     17965     17967     17968
     17966     17965     17969     17970     17966     17965     17969     17971
     17966     17965     17969     17973     17966     17965     17985     17981
     17966     17965     17985     17986     17966     17965     17985     17990
     17967     17965     17969     17970     17967     17965     17969     17971
     17967     17965     17969     17973     17967     17965     17985     17981
     17967     17965     17985     17986     17967     17965     17985     17990
     17968     17967     17965     17969     17968     17967     17965     17985
     17969     17965     17985     17981     17969     17965     17985     17986
     17969     17965     17985     17990     17969     17973     17975     17976
     17969     17973     17977     17978     17969     17973     17977     17979
     17969     17973     17977     17981     17970     17969     17965     17985
     17970     17969     17971     17972     17970     17969     17973     17974
     17970     17969     17973     17975     17970     17969     17973     17977
     17971     17969     17965     17985     17971     17969     17973     17974
     17971     17969     17973     17975     17971     17969     17973     17977
     17972     17971     17969     17973     17973     17969     17965     17985
     17973     17977     17979     17980     17973     17977     17981     17982
     17973     17977     17981     17983     17973     17977     17981     17985
     17974     17973     17975     17976     17974     17973     17977     17978
     17974     17973     17977     17979     17974     17973     17977     17981
     17975     17973     17977     17978     17975     17973     17977     17979
     17975     17973     17977     17981     17976     17975     17973     17977
     17977     17981     17983     17984     17977     17981     17985     17986
     17977     17981     17985     17990     17978     17977     17979     17980
     17978     17977     17981     17982     17978     17977     17981     17983
     17978     17977     17981     17985     17979     17977     17981     17982
     17979     17977     17981     17983     17979     17977     17981     17985
     17980     17979     17977     17981     17981     17985     17990     17987
     17982     17981     17983     17984     17982     17981     17985     17986
     17982     17981     17985     17990     17983     17981     17985     17986
     17983     17981     17985     17990     17984     17983     17981     17985
     17985     17990     17987     17988     17985     17990     17987     17989
     17985     17990     17987     17991     17986     17985     17990     17987
     17987     17991     17992     17993     17987     17991     17992     17994
     17987     17991     17992     17995     17988     17987     17991     17992
     17989     17987     17991     17992     17990     17987     17991     17992
     17991     17992     17995     17996     17991     17992     17995     17997
     17991     17992     17995     18003     17992     17995     17997     17998
     17992     17995     18003     18004     17992     17995     18003     18005
     17992     17995     18003     18006     17993     17992     17995     17996
     17993     17992     17995     17997     17993     17992     17995     18003
     17994     17992     17995     17996     17994     17992     17995     17997
     17994     17992     17995     18003     17995     17997     17998     17999
     17995     17997     17998     18000     17995     18003     18006     18007
     17996     17995     17997     17998     17996     17995     18003     18004
     17996     17995     18003     18005     17996     17995     18003     18006
     17997     17995     18003     18004     17997     17995     18003     18005
     17997     17995     18003     18006     17997     17998     18000     18001
     17997     17998     18000     18002     17997     17998     18000     18012
     17998     17997     17995     18003     17998     18000     18012     18013
     17998     18000     18012     18014     17998     18000     18012     18015
     17999     17998     18000     18001     17999     17998     18000     18002
     17999     17998     18000     18012     18000     18012     18015     18016
     18000     18012     18015     18017     18000     18012     18015     18018
     18001     18000     18012     18013     18001     18000     18012     18014
     18001     18000     18012     18015     18002     18000     18012     18013
     18002     18000     18012     18014     18002     18000     18012     18015
     18003     18006     18007     18008     18003     18006     18007     18009
     18004     18003     18006     18007     18005     18003     18006     18007
     18006     18007     18009     18010     18006     18007     18009     18011
     18006     18007     18009     18059     18007     18009     18059     18060
     18007     18009     18059     18061     18007     18009     18059     18062
     18008     18007     18009     18010     18008     18007     18009     18011
     18008     18007     18009     18059     18009     18059     18062     18063
     18009     18059     18062     18064     18009     18059     18062     18065
     18010     18009     18059     18060     18010     18009     18059     18061
     18010     18009     18059     18062     18011     18009     18059     18060
     18011     18009     18059     18061     18011     18009     18059     18062
     18012     18015     18018     18019     18012     18015     18018     18020
     18013     18012     18015     18016     18013     18012     18015     18017
     18013     18012     18015     18018     18014     18012     18015     18016
     18014     18012     18015     18017     18014     18012     18015     18018
     18015     18018     18020     18021     18015     18018     18020     18022
     18016     18015     18018     18019     18016     18015     18018     18020
     18017     18015     18018     18019     18017     18015     18018     18020
     18018     18020     18022     18023     18018     18020     18022     18024
     18018     18020     18022     18025     18019     18018     18020     18021
     18019     18018     18020     18022     18020     18022     18025     18026
     18020     18022     18025     18027     18021     18020     18022     18023
     18021     18020     18022     18024     18021     18020     18022     18025
     18022     18025     18027     18028     18022     18025     18027     18029
     18023     18022     18025     18026     18023     18022     18025     18027
     18024     18022     18025     18026     18024     18022     18025     18027
     18025     18027     18029     18030     18025     18027     18029     18031
     18025     18027     18029     18032     18026     18025     18027     18028
     18026     18025     18027     18029     18027     18029     18032     18033
     18027     18029     18032     18034     18028     18027     18029     18030
     18028     18027     18029     18031     18028     18027     18029     18032
     18029     18032     18034     18035     18029     18032     18034     18036
     18030     18029     18032     18033     18030     18029     18032     18034
     18031     18029     18032     18033     18031     18029     18032     18034
     18032     18034     18036     18037     18032     18034     18036     18038
     18032     18034     18036     18039     18033     18032     18034     18035
     18033     18032     18034     18036     18034     18036     18039     18040
     18034     18036     18039     18041     18035     18034     18036     18037
     18035     18034     18036     18038     18035     18034     18036     18039
     18036     18039     18041     18042     18036     18039     18041     18043
     18037     18036     18039     18040     18037     18036     18039     18041
     18038     18036     18039     18040     18038     18036     18039     18041
     18039     18041     18043     18044     18039     18041     18043     18045
     18039     18041     18043     18046     18040     18039     18041     18042
     18040     18039     18041     18043     18041     18043     18046     18047
     18041     18043     18046     18048     18041     18043     18046     18049
     18042     18041     18043     18044     18042     18041     18043     18045
     18042     18041     18043     18046     18043     18046     18049     18050
     18043     18046     18049     18051     18043     18046     18049     18052
     18044     18043     18046     18047     18044     18043     18046     18048
     18044     18043     18046     18049     18045     18043     18046     18047
     18045     18043     18046     18048     18045     18043     18046     18049
     18046     18049     18052     18053     18046     18049     18052     18054
     18046     18049     18052     18055     18047     18046     18049     18050
     18047     18046     18049     18051     18047     18046     18049     18052
     18048     18046     18049     18050     18048     18046     18049     18051
     18048     18046     18049     18052     18049     18052     18055     18056
     18049     18052     18055     18057     18049     18052     18055     18058
     18050     18049     18052     18053     18050     18049     18052     18054
     18050     18049     18052     18055     18051     18049     18052     18053
     18051     18049     18052     18054     18051     18049     18052     18055
     18053     18052     18055     18056     18053     18052     18055     18057
     18053     18052     18055     18058     18054     18052     18055     18056
     18054     18052     18055     18057     18054     18052     18055     18058
     18059     18062     18065     18066     18059     18062     18065     18067
     18059     18062     18065     18068     18060     18059     18062     18063
     18060     18059     18062     18064     18060     18059     18062     18065
     18061     18059     18062     18063     18061     18059     18062     18064
     18061     18059     18062     18065     18062     18065     18068     18069
     18062     18065     18068     18070     18062     18065     18068     18071
     18063     18062     18065     18066     18063     18062     18065     18067
     18063     18062     18065     18068     18064     18062     18065     18066
     18064     18062     18065     18067     18064     18062     18065     18068
     18065     18068     18071     18072     18065     18068     18071     18073
     18065     18068     18071     18074     18066     18065     18068     18069
     18066     18065     18068     18070     18066     18065     18068     18071
     18067     18065     18068     18069     18067     18065     18068     18070
     18067     18065     18068     18071     18068     18071     18074     18075
     18068     18071     18074     18076     18068     18071     18074     18077
     18069     18068     18071     18072     18069     18068     18071     18073
     18069     18068     18071     18074     18070     18068     18071     18072
     18070     18068     18071     18073     18070     18068     18071     18074
     18071     18074     18077     18078     18071     18074     18077     18079
     18071     18074     18077     18080     18072     18071     18074     18075
     18072     18071     18074     18076     18072     18071     18074     18077
     18073     18071     18074     18075     18073     18071     18074     18076
     18073     18071     18074     18077     18074     18077     18080     18081
     18074     18077     18080     18082     18074     18077     18080     18083
     18075     18074     18077     18078     18075     18074     18077     18079
     18075     18074     18077     18080     18076     18074     18077     18078
     18076     18074     18077     18079     18076     18074     18077     18080
     18077     18080     18083     18084     18077     18080     18083     18085
     18077     18080     18083     18086     18078     18077     18080     18081
     18078     18077     18080     18082     18078     18077     18080     18083
     18079     18077     18080     18081     18079     18077     18080     18082
     18079     18077     18080     18083     18080     18083     18086     18087
     18080     18083     18086     18088     18080     18083     18086     18089
     18081     18080     18083     18084     18081     18080     18083     18085
     18081     18080     18083     18086     18082     18080     18083     18084
     18082     18080     18083     18085     18082     18080     18083     18086
     18083     18086     18089     18090     18083     18086     18089     18091
     18083     18086     18089     18092     18084     18083     18086     18087
     18084     18083     18086     18088     18084     18083     18086     18089
     18085     18083     18086     18087     18085     18083     18086     18088
     18085     18083     18086     18089     18086     18089     18092     18093
     18086     18089     18092     18094     18086     18089     18092     18095
     18087     18086     18089     18090     18087     18086     18089     18091
     18087     18086     18089     18092     18088     18086     18089     18090
     18088     18086     18089     18091     18088     18086     18089     18092
     18089     18092     18095     18096     18089     18092     18095     18097
     18089     18092     18095     18098     18090     18089     18092     18093
     18090     18089     18092     18094     18090     18089     18092     18095
     18091     18089     18092     18093     18091     18089     18092     18094
     18091     18089     18092     18095     18092     18095     18098     18099
     18092     18095     18098     18100     18092     18095     18098     18101
     18093     18092     18095     18096     18093     18092     18095     18097
     18093     18092     18095     18098     18094     18092     18095     18096
     18094     18092     18095     18097     18094     18092     18095     18098
     18095     18098     18101     18102     18095     18098     18101     18103
     18095     18098     18101     18104     18096     18095     18098     18099
     18096     18095     18098     18100     18096     18095     18098     18101
     18097     18095     18098     18099     18097     18095     18098     18100
     18097     18095     18098     18101     18098     18101     18104     18105
     18098     18101     18104     18106     18098     18101     18104     18107
     18099     18098     18101     18102     18099     18098     18101     18103
     18099     18098     18101     18104     18100     18098     18101     18102
     18100     18098     18101     18103     18100     18098     18101     18104
     18102     18101     18104     18105     18102     18101     18104     18106
     18102     18101     18104     18107     18103     18101     18104     18105
     18103     18101     18104     18106     18103     18101     18104     18107
     18108     18112     18115     18116     18108     18112     18115     18117
     18108     18112     18115     18121     18109     18108     18112     18113
     18109     18108     18112     18114     18109     18108     18112     18115
     18110     18108     18112     18113     18110     18108     18112     18114
     18110     18108     18112     18115     18111     18108     18112     18113
     18111     18108     18112     18114     18111     18108     18112     18115
     18112     18115     18121     18118     18113     18112     18115     18116
     18113     18112     18115     18117     18113     18112     18115     18121
     18114     18112     18115     18116     18114     18112     18115     18117
     18114     18112     18115     18121     18115     18121     18118     18119
     18115     18121     18118     18120     18115     18121     18118     18122
     18116     18115     18121     18118     18117     18115     18121     18118
     18118     18122     18123     18124     18118     18122     18123     18125
     18118     18122     18123     18126     18119     18118     18122     18123
     18120     18118     18122     18123     18121     18118     18122     18123
     18122     18123     18126     18127     18122     18123     18126     18128
     18122     18123     18126     18134     18123     18126     18128     18129
     18123     18126     18134     18135     18123     18126     18134     18136
     18123     18126     18134     18137     18124     18123     18126     18127
     18124     18123     18126     18128     18124     18123     18126     18134
     18125     18123     18126     18127     18125     18123     18126     18128
     18125     18123     18126     18134     18126     18128     18129     18130
     18126     18128     18129     18131     18126     18134     18137     18138
     18127     18126     18128     18129     18127     18126     18134     18135
     18127     18126     18134     18136     18127     18126     18134     18137
     18128     18126     18134     18135     18128     18126     18134     18136
     18128     18126     18134     18137     18128     18129     18131     18132
     18128     18129     18131     18133     18128     18129     18131     18143
     18129     18128     18126     18134     18129     18131     18143     18144
     18129     18131     18143     18145     18129     18131     18143     18146
     18130     18129     18131     18132     18130     18129     18131     18133
     18130     18129     18131     18143     18131     18143     18146     18147
     18131     18143     18146     18148     18131     18143     18146     18149
     18132     18131     18143     18144     18132     18131     18143     18145
     18132     18131     18143     18146     18133     18131     18143     18144
     18133     18131     18143     18145     18133     18131     18143     18146
     18134     18137     18138     18139     18134     18137     18138     18140
     18135     18134     18137     18138     18136     18134     18137     18138
     18137     18138     18140     18141     18137     18138     18140     18142
     18137     18138     18140     18190     18138     18140     18190     18191
     18138     18140     18190     18192     18138     18140     18190     18193
     18139     18138     18140     18141     18139     18138     18140     18142
     18139     18138     18140     18190     18140     18190     18193     18194
     18140     18190     18193     18195     18140     18190     18193     18196
     18141     18140     18190     18191     18141     18140     18190     18192
     18141     18140     18190     18193     18142     18140     18190     18191
     18142     18140     18190     18192     18142     18140     18190     18193
     18143     18146     18149     18150     18143     18146     18149     18151
     18144     18143     18146     18147     18144     18143     18146     18148
     18144     18143     18146     18149     18145     18143     18146     18147
     18145     18143     18146     18148     18145     18143     18146     18149
     18146     18149     18151     18152     18146     18149     18151     18153
     18147     18146     18149     18150     18147     18146     18149     18151
     18148     18146     18149     18150     18148     18146     18149     18151
     18149     18151     18153     18154     18149     18151     18153     18155
     18149     18151     18153     18156     18150     18149     18151     18152
     18150     18149     18151     18153     18151     18153     18156     18157
     18151     18153     18156     18158     18152     18151     18153     18154
     18152     18151     18153     18155     18152     18151     18153     18156
     18153     18156     18158     18159     18153     18156     18158     18160
     18154     18153     18156     18157     18154     18153     18156     18158
     18155     18153     18156     18157     18155     18153     18156     18158
     18156     18158     18160     18161     18156     18158     18160     18162
     18156     18158     18160     18163     18157     18156     18158     18159
     18157     18156     18158     18160     18158     18160     18163     18164
     18158     18160     18163     18165     18159     18158     18160     18161
     18159     18158     18160     18162     18159     18158     18160     18163
     18160     18163     18165     18166     18160     18163     18165     18167
     18161     18160     18163     18164     18161     18160     18163     18165
     18162     18160     18163     18164     18162     18160     18163     18165
     18163     18165     18167     18168     18163     18165     18167     18169
     18163     18165     18167     18170     18164     18163     18165     18166
     18164     18163     18165     18167     18165     18167     18170     18171
     18165     18167     18170     18172     18166     18165     18167     18168
     18166     18165     18167     18169     18166     18165     18167     18170
     18167     18170     18172     18173     18167     18170     18172     18174
     18168     18167     18170     18171     18168     18167     18170     18172
     18169     18167     18170     18171     18169     18167     18170     18172
     18170     18172     18174     18175     18170     18172     18174     18176
     18170     18172     18174     18177     18171     18170     18172     18173
     18171     18170     18172     18174     18172     18174     18177     18178
     18172     18174     18177     18179     18172     18174     18177     18180
     18173     18172     18174     18175     18173     18172     18174     18176
     18173     18172     18174     18177     18174     18177     18180     18181
     18174     18177     18180     18182     18174     18177     18180     18183
     18175     18174     18177     18178     18175     18174     18177     18179
     18175     18174     18177     18180     18176     18174     18177     18178
     18176     18174     18177     18179     18176     18174     18177     18180
     18177     18180     18183     18184     18177     18180     18183     18185
     18177     18180     18183     18186     18178     18177     18180     18181
     18178     18177     18180     18182     18178     18177     18180     18183
     18179     18177     18180     18181     18179     18177     18180     18182
     18179     18177     18180     18183     18180     18183     18186     18187
     18180     18183     18186     18188     18180     18183     18186     18189
     18181     18180     18183     18184     18181     18180     18183     18185
     18181     18180     18183     18186     18182     18180     18183     18184
     18182     18180     18183     18185     18182     18180     18183     18186
     18184     18183     18186     18187     18184     18183     18186     18188
     18184     18183     18186     18189     18185     18183     18186     18187
     18185     18183     18186     18188     18185     18183     18186     18189
     18190     18193     18196     18197     18190     18193     18196     18198
     18190     18193     18196     18199     18191     18190     18193     18194
     18191     18190     18193     18195     18191     18190     18193     18196
     18192     18190     18193     18194     18192     18190     18193     18195
     18192     18190     18193     18196     18193     18196     18199     18200
     18193     18196     18199     18201     18193     18196     18199     18202
     18194     18193     18196     18197     18194     18193     18196     18198
     18194     18193     18196     18199     18195     18193     18196     18197
     18195     18193     18196     18198     18195     18193     18196     18199
     18196     18199     18202     18203     18196     18199     18202     18204
     18196     18199     18202     18205     18197     18196     18199     18200
     18197     18196     18199     18201     18197     18196     18199     18202
     18198     18196     18199     18200     18198     18196     18199     18201
     18198     18196     18199     18202     18199     18202     18205     18206
     18199     18202     18205     18207     18199     18202     18205     18208
     18200     18199     18202     18203     18200     18199     18202     18204
     18200     18199     18202     18205     18201     18199     18202     18203
     18201     18199     18202     18204     18201     18199     18202     18205
     18202     18205     18208     18209     18202     18205     18208     18210
     18202     18205     18208     18211     18203     18202     18205     18206
     18203     18202     18205     18207     18203     18202     18205     18208
     18204     18202     18205     18206     18204     18202     18205     18207
     18204     18202     18205     18208     18205     18208     18211     18212
     18205     18208     18211     18213     18205     18208     18211     18214
     18206     18205     18208     18209     18206     18205     18208     18210
     18206     18205     18208     18211     18207     18205     18208     18209
     18207     18205     18208     18210     18207     18205     18208     18211
     18208     18211     18214     18215     18208     18211     18214     18216
     18208     18211     18214     18217     18209     18208     18211     18212
     18209     18208     18211     18213     18209     18208     18211     18214
     18210     18208     18211     18212     18210     18208     18211     18213
     18210     18208     18211     18214     18211     18214     18217     18218
     18211     18214     18217     18219     18211     18214     18217     18220
     18212     18211     18214     18215     18212     18211     18214     18216
     18212     18211     18214     18217     18213     18211     18214     18215
     18213     18211     18214     18216     18213     18211     18214     18217
     18214     18217     18220     18221     18214     18217     18220     18222
     18214     18217     18220     18223     18215     18214     18217     18218
     18215     18214     18217     18219     18215     18214     18217     18220
     18216     18214     18217     18218     18216     18214     18217     18219
     18216     18214     18217     18220     18217     18220     18223     18224
     18217     18220     18223     18225     18217     18220     18223     18226
     18218     18217     18220     18221     18218     18217     18220     18222
     18218     18217     18220     18223     18219     18217     18220     18221
     18219     18217     18220     18222     18219     18217     18220     18223
     18220     18223     18226     18227     18220     18223     18226     18228
     18220     18223     18226     18229     18221     18220     18223     18224
     18221     18220     18223     18225     18221     18220     18223     18226
     18222     18220     18223     18224     18222     18220     18223     18225
     18222     18220     18223     18226     18223     18226     18229     18230
     18223     18226     18229     18231     18223     18226     18229     18232
     18224     18223     18226     18227     18224     18223     18226     18228
     18224     18223     18226     18229     18225     18223     18226     18227
     18225     18223     18226     18228     18225     18223     18226     18229
     18226     18229     18232     18233     18226     18229     18232     18234
     18226     18229     18232     18235     18227     18226     18229     18230
     18227     18226     18229     18231     18227     18226     18229     18232
     18228     18226     18229     18230     18228     18226     18229     18231
     18228     18226     18229     18232     18229     18232     18235     18236
     18229     18232     18235     18237     18229     18232     18235     18238
     18230     18229     18232     18233     18230     18229     18232     18234
     18230     18229     18232     18235     18231     18229     18232     18233
     18231     18229     18232     18234     18231     18229     18232     18235
     18233     18232     18235     18236     18233     18232     18235     18237
     18233     18232     18235     18238     18234     18232     18235     18236
     18234     18232     18235     18237     18234     18232     18235     18238
     18239     18243     18246     18247     18239     18243     18246     18248
     18239     18243     18246     18252     18240     18239     18243     18244
     18240     18239     18243     18245     18240     18239     18243     18246
     18241     18239     18243     18244     18241     18239     18243     18245
     18241     18239     18243     18246     18242     18239     18243     18244
     18242     18239     18243     18245     18242     18239     18243     18246
     18243     18246     18252     18249     18244     18243     18246     18247
     18244     18243     18246     18248     18244     18243     18246     18252
     18245     18243     18246     18247     18245     18243     18246     18248
     18245     18243     18246     18252     18246     18252     18249     18250
     18246     18252     18249     18251     18246     18252     18249     18253
     18247     18246     18252     18249     18248     18246     18252     18249
     18249     18253     18254     18255     18249     18253     18254     18256
     18249     18253     18254     18257     18250     18249     18253     18254
     18251     18249     18253     18254     18252     18249     18253     18254
     18253     18254     18257     18258     18253     18254     18257     18259
     18253     18254     18257     18265     18254     18257     18259     18260
     18254     18257     18265     18266     18254     18257     18265     18267
     18254     18257     18265     18268     18255     18254     18257     18258
     18255     18254     18257     18259     18255     18254     18257     18265
     18256     18254     18257     18258     18256     18254     18257     18259
     18256     18254     18257     18265     18257     18259     18260     18261
     18257     18259     18260     18262     18257     18265     18268     18269
     18258     18257     18259     18260     18258     18257     18265     18266
     18258     18257     18265     18267     18258     18257     18265     18268
     18259     18257     18265     18266     18259     18257     18265     18267
     18259     18257     18265     18268     18259     18260     18262     18263
     18259     18260     18262     18264     18259     18260     18262     18274
     18260     18259     18257     18265     18260     18262     18274     18275
     18260     18262     18274     18276     18260     18262     18274     18277
     18261     18260     18262     18263     18261     18260     18262     18264
     18261     18260     18262     18274     18262     18274     18277     18278
     18262     18274     18277     18279     18262     18274     18277     18280
     18263     18262     18274     18275     18263     18262     18274     18276
     18263     18262     18274     18277     18264     18262     18274     18275
     18264     18262     18274     18276     18264     18262     18274     18277
     18265     18268     18269     18270     18265     18268     18269     18271
     18266     18265     18268     18269     18267     18265     18268     18269
     18268     18269     18271     18272     18268     18269     18271     18273
     18268     18269     18271     18321     18269     18271     18321     18322
     18269     18271     18321     18323     18269     18271     18321     18324
     18270     18269     18271     18272     18270     18269     18271     18273
     18270     18269     18271     18321     18271     18321     18324     18325
     18271     18321     18324     18326     18271     18321     18324     18327
     18272     18271     18321     18322     18272     18271     18321     18323
     18272     18271     18321     18324     18273     18271     18321     18322
     18273     18271     18321     18323     18273     18271     18321     18324
     18274     18277     18280     18281     18274     18277     18280     18282
     18275     18274     18277     18278     18275     18274     18277     18279
     18275     18274     18277     18280     18276     18274     18277     18278
     18276     18274     18277     18279     18276     18274     18277     18280
     18277     18280     18282     18283     18277     18280     18282     18284
     18278     18277     18280     18281     18278     18277     18280     18282
     18279     18277     18280     18281     18279     18277     18280     18282
     18280     18282     18284     18285     18280     18282     18284     18286
     18280     18282     18284     18287     18281     18280     18282     18283
     18281     18280     18282     18284     18282     18284     18287     18288
     18282     18284     18287     18289     18283     18282     18284     18285
     18283     18282     18284     18286     18283     18282     18284     18287
     18284     18287     18289     18290     18284     18287     18289     18291
     18285     18284     18287     18288     18285     18284     18287     18289
     18286     18284     18287     18288     18286     18284     18287     18289
     18287     18289     18291     18292     18287     18289     18291     18293
     18287     18289     18291     18294     18288     18287     18289     18290
     18288     18287     18289     18291     18289     18291     18294     18295
     18289     18291     18294     18296     18290     18289     18291     18292
     18290     18289     18291     18293     18290     18289     18291     18294
     18291     18294     18296     18297     18291     18294     18296     18298
     18292     18291     18294     18295     18292     18291     18294     18296
     18293     18291     18294     18295     18293     18291     18294     18296
     18294     18296     18298     18299     18294     18296     18298     18300
     18294     18296     18298     18301     18295     18294     18296     18297
     18295     18294     18296     18298     18296     18298     18301     18302
     18296     18298     18301     18303     18297     18296     18298     18299
     18297     18296     18298     18300     18297     18296     18298     18301
     18298     18301     18303     18304     18298     18301     18303     18305
     18299     18298     18301     18302     18299     18298     18301     18303
     18300     18298     18301     18302     18300     18298     18301     18303
     18301     18303     18305     18306     18301     18303     18305     18307
     18301     18303     18305     18308     18302     18301     18303     18304
     18302     18301     18303     18305     18303     18305     18308     18309
     18303     18305     18308     18310     18303     18305     18308     18311
     18304     18303     18305     18306     18304     18303     18305     18307
     18304     18303     18305     18308     18305     18308     18311     18312
     18305     18308     18311     18313     18305     18308     18311     18314
     18306     18305     18308     18309     18306     18305     18308     18310
     18306     18305     18308     18311     18307     18305     18308     18309
     18307     18305     18308     18310     18307     18305     18308     18311
     18308     18311     18314     18315     18308     18311     18314     18316
     18308     18311     18314     18317     18309     18308     18311     18312
     18309     18308     18311     18313     18309     18308     18311     18314
     18310     18308     18311     18312     18310     18308     18311     18313
     18310     18308     18311     18314     18311     18314     18317     18318
     18311     18314     18317     18319     18311     18314     18317     18320
     18312     18311     18314     18315     18312     18311     18314     18316
     18312     18311     18314     18317     18313     18311     18314     18315
     18313     18311     18314     18316     18313     18311     18314     18317
     18315     18314     18317     18318     18315     18314     18317     18319
     18315     18314     18317     18320     18316     18314     18317     18318
     18316     18314     18317     18319     18316     18314     18317     18320
     18321     18324     18327     18328     18321     18324     18327     18329
     18321     18324     18327     18330     18322     18321     18324     18325
     18322     18321     18324     18326     18322     18321     18324     18327
     18323     18321     18324     18325     18323     18321     18324     18326
     18323     18321     18324     18327     18324     18327     18330     18331
     18324     18327     18330     18332     18324     18327     18330     18333
     18325     18324     18327     18328     18325     18324     18327     18329
     18325     18324     18327     18330     18326     18324     18327     18328
     18326     18324     18327     18329     18326     18324     18327     18330
     18327     18330     18333     18334     18327     18330     18333     18335
     18327     18330     18333     18336     18328     18327     18330     18331
     18328     18327     18330     18332     18328     18327     18330     18333
     18329     18327     18330     18331     18329     18327     18330     18332
     18329     18327     18330     18333     18330     18333     18336     18337
     18330     18333     18336     18338     18330     18333     18336     18339
     18331     18330     18333     18334     18331     18330     18333     18335
     18331     18330     18333     18336     18332     18330     18333     18334
     18332     18330     18333     18335     18332     18330     18333     18336
     18333     18336     18339     18340     18333     18336     18339     18341
     18333     18336     18339     18342     18334     18333     18336     18337
     18334     18333     18336     18338     18334     18333     18336     18339
     18335     18333     18336     18337     18335     18333     18336     18338
     18335     18333     18336     18339     18336     18339     18342     18343
     18336     18339     18342     18344     18336     18339     18342     18345
     18337     18336     18339     18340     18337     18336     18339     18341
     18337     18336     18339     18342     18338     18336     18339     18340
     18338     18336     18339     18341     18338     18336     18339     18342
     18339     18342     18345     18346     18339     18342     18345     18347
     18339     18342     18345     18348     18340     18339     18342     18343
     18340     18339     18342     18344     18340     18339     18342     18345
     18341     18339     18342     18343     18341     18339     18342     18344
     18341     18339     18342     18345     18342     18345     18348     18349
     18342     18345     18348     18350     18342     18345     18348     18351
     18343     18342     18345     18346     18343     18342     18345     18347
     18343     18342     18345     18348     18344     18342     18345     18346
     18344     18342     18345     18347     18344     18342     18345     18348
     18345     18348     18351     18352     18345     18348     18351     18353
     18345     18348     18351     18354     18346     18345     18348     18349
     18346     18345     18348     18350     18346     18345     18348     18351
     18347     18345     18348     18349     18347     18345     18348     18350
     18347     18345     18348     18351     18348     18351     18354     18355
     18348     18351     18354     18356     18348     18351     18354     18357
     18349     18348     18351     18352     18349     18348     18351     18353
     18349     18348     18351     18354     18350     18348     18351     18352
     18350     18348     18351     18353     18350     18348     18351     18354
     18351     18354     18357     18358     18351     18354     18357     18359
     18351     18354     18357     18360     18352     18351     18354     18355
     18352     18351     18354     18356     18352     18351     18354     18357
     18353     18351     18354     18355     18353     18351     18354     18356
     18353     18351     18354     18357     18354     18357     18360     18361
     18354     18357     18360     18362     18354     18357     18360     18363
     18355     18354     18357     18358     18355     18354     18357     18359
     18355     18354     18357     18360     18356     18354     18357     18358
     18356     18354     18357     18359     18356     18354     18357     18360
     18357     18360     18363     18364     18357     18360     18363     18365
     18357     18360     18363     18366     18358     18357     18360     18361
     18358     18357     18360     18362     18358     18357     18360     18363
     18359     18357     18360     18361     18359     18357     18360     18362
     18359     18357     18360     18363     18360     18363     18366     18367
     18360     18363     18366     18368     18360     18363     18366     18369
     18361     18360     18363     18364     18361     18360     18363     18365
     18361     18360     18363     18366     18362     18360     18363     18364
     18362     18360     18363     18365     18362     18360     18363     18366
     18364     18363     18366     18367     18364     18363     18366     18368
     18364     18363     18366     18369     18365     18363     18366     18367
     18365     18363     18366     18368     18365     18363     18366     18369
     18370     18383     18386     18387     18370     18383     18386     18388
     18370     18383     18386     18393     18371     18370     18375     18376
     18371     18370     18375     18377     18371     18370     18375     18378
     18371     18370     18379     18380     18371     18370     18379     18381
     18371     18370     18379     18382     18371     18370     18383     18384
     18371     18370     18383     18385     18371     18370     18383     18386
     18372     18371     18370     18375     18372     18371     18370     18379
     18372     18371     18370     18383     18373     18371     18370     18375
     18373     18371     18370     18379     18373     18371     18370     18383
     18374     18371     18370     18375     18374     18371     18370     18379
     18374     18371     18370     18383     18375     18370     18379     18380
     18375     18370     18379     18381     18375     18370     18379     18382
     18375     18370     18383     18384     18375     18370     18383     18385
     18375     18370     18383     18386     18376     18375     18370     18379
     18376     18375     18370     18383     18377     18375     18370     18379
     18377     18375     18370     18383     18378     18375     18370     18379
     18378     18375     18370     18383     18379     18370     18383     18384
     18379     18370     18383     18385     18379     18370     18383     18386
     18380     18379     18370     18383     18381     18379     18370     18383
     18382     18379     18370     18383     18383     18386     18393     18389
     18384     18383     18386     18387     18384     18383     18386     18388
     18384     18383     18386     18393     18385     18383     18386     18387
     18385     18383     18386     18388     18385     18383     18386     18393
     18386     18393     18389     18390     18386     18393     18389     18391
     18386     18393     18389     18392     18387     18386     18393     18389
     18388     18386     18393     18389     18389     18392     18394     18395
     18389     18392     18394     18396     18389     18392     18394     18399
     18390     18389     18392     18394     18391     18389     18392     18394
     18392     18394     18399     18397     18392     18394     18399     18400
     18392     18394     18399     18401     18393     18389     18392     18394
     18394     18399     18397     18398     18394     18399     18397     18449
     18394     18399     18401     18402     18394     18399     18401     18403
     18394     18399     18401     18405     18395     18394     18399     18397
     18395     18394     18399     18400     18395     18394     18399     18401
     18396     18394     18399     18397     18396     18394     18399     18400
     18396     18394     18399     18401     18397     18399     18401     18402
     18397     18399     18401     18403     18397     18399     18401     18405
     18397     18449     18451     18452     18397     18449     18451     18453
     18397     18449     18451     18454     18398     18397     18399     18400
     18398     18397     18399     18401     18398     18397     18449     18450
     18398     18397     18449     18451     18399     18397     18449     18450
     18399     18397     18449     18451     18399     18401     18403     18404
     18399     18401     18405     18406     18399     18401     18405     18407
     18400     18399     18397     18449     18400     18399     18401     18402
     18400     18399     18401     18403     18400     18399     18401     18405
     18401     18399     18397     18449     18401     18405     18407     18408
     18401     18405     18407     18409     18402     18401     18403     18404
     18402     18401     18405     18406     18402     18401     18405     18407
     18403     18401     18405     18406     18403     18401     18405     18407
     18404     18403     18401     18405     18405     18407     18409     18410
     18405     18407     18409     18411     18405     18407     18409     18412
     18406     18405     18407     18408     18406     18405     18407     18409
     18407     18409     18412     18413     18407     18409     18412     18414
     18407     18409     18412     18415     18408     18407     18409     18410
     18408     18407     18409     18411     18408     18407     18409     18412
     18409     18412     18415     18416     18409     18412     18415     18417
     18409     18412     18415     18418     18410     18409     18412     18413
     18410     18409     18412     18414     18410     18409     18412     18415
     18411     18409     18412     18413     18411     18409     18412     18414
     18411     18409     18412     18415     18412     18415     18418     18419
     18412     18415     18418     18420     18412     18415     18418     18421
     18413     18412     18415     18416     18413     18412     18415     18417
     18413     18412     18415     18418     18414     18412     18415     18416
     18414     18412     18415     18417     18414     18412     18415     18418
     18415     18418     18421     18422     18415     18418     18421     18423
     18415     18418     18421     18424     18416     18415     18418     18419
     18416     18415     18418     18420     18416     18415     18418     18421
     18417     18415     18418     18419     18417     18415     18418     18420
     18417     18415     18418     18421     18418     18421     18424     18425
     18418     18421     18424     18426     18418     18421     18424     18427
     18419     18418     18421     18422     18419     18418     18421     18423
     18419     18418     18421     18424     18420     18418     18421     18422
     18420     18418     18421     18423     18420     18418     18421     18424
     18421     18424     18427     18428     18421     18424     18427     18429
     18421     18424     18427     18430     18422     18421     18424     18425
     18422     18421     18424     18426     18422     18421     18424     18427
     18423     18421     18424     18425     18423     18421     18424     18426
     18423     18421     18424     18427     18424     18427     18430     18431
     18424     18427     18430     18432     18424     18427     18430     18433
     18425     18424     18427     18428     18425     18424     18427     18429
     18425     18424     18427     18430     18426     18424     18427     18428
     18426     18424     18427     18429     18426     18424     18427     18430
     18427     18430     18433     18434     18427     18430     18433     18435
     18427     18430     18433     18436     18428     18427     18430     18431
     18428     18427     18430     18432     18428     18427     18430     18433
     18429     18427     18430     18431     18429     18427     18430     18432
     18429     18427     18430     18433     18430     18433     18436     18437
     18430     18433     18436     18438     18430     18433     18436     18439
     18431     18430     18433     18434     18431     18430     18433     18435
     18431     18430     18433     18436     18432     18430     18433     18434
     18432     18430     18433     18435     18432     18430     18433     18436
     18433     18436     18439     18440     18433     18436     18439     18441
     18433     18436     18439     18442     18434     18433     18436     18437
     18434     18433     18436     18438     18434     18433     18436     18439
     18435     18433     18436     18437     18435     18433     18436     18438
     18435     18433     18436     18439     18436     18439     18442     18443
     18436     18439     18442     18444     18436     18439     18442     18445
     18437     18436     18439     18440     18437     18436     18439     18441
     18437     18436     18439     18442     18438     18436     18439     18440
     18438     18436     18439     18441     18438     18436     18439     18442
     18439     18442     18445     18446     18439     18442     18445     18447
     18439     18442     18445     18448     18440     18439     18442     18443
     18440     18439     18442     18444     18440     18439     18442     18445
     18441     18439     18442     18443     18441     18439     18442     18444
     18441     18439     18442     18445     18443     18442     18445     18446
     18443     18442     18445     18447     18443     18442     18445     18448
     18444     18442     18445     18446     18444     18442     18445     18447
     18444     18442     18445     18448     18449     18451     18454     18455
     18449     18451     18454     18456     18449     18451     18454     18457
     18450     18449     18451     18452     18450     18449     18451     18453
     18450     18449     18451     18454     18451     18454     18457     18458
     18451     18454     18457     18459     18451     18454     18457     18460
     18452     18451     18454     18455     18452     18451     18454     18456
     18452     18451     18454     18457     18453     18451     18454     18455
     18453     18451     18454     18456     18453     18451     18454     18457
     18454     18457     18460     18461     18454     18457     18460     18462
     18454     18457     18460     18463     18455     18454     18457     18458
     18455     18454     18457     18459     18455     18454     18457     18460
     18456     18454     18457     18458     18456     18454     18457     18459
     18456     18454     18457     18460     18457     18460     18463     18464
     18457     18460     18463     18465     18457     18460     18463     18466
     18458     18457     18460     18461     18458     18457     18460     18462
     18458     18457     18460     18463     18459     18457     18460     18461
     18459     18457     18460     18462     18459     18457     18460     18463
     18460     18463     18466     18467     18460     18463     18466     18468
     18460     18463     18466     18469     18461     18460     18463     18464
     18461     18460     18463     18465     18461     18460     18463     18466
     18462     18460     18463     18464     18462     18460     18463     18465
     18462     18460     18463     18466     18463     18466     18469     18470
     18463     18466     18469     18471     18463     18466     18469     18472
     18464     18463     18466     18467     18464     18463     18466     18468
     18464     18463     18466     18469     18465     18463     18466     18467
     18465     18463     18466     18468     18465     18463     18466     18469
     18466     18469     18472     18473     18466     18469     18472     18474
     18467     18466     18469     18470     18467     18466     18469     18471
     18467     18466     18469     18472     18468     18466     18469     18470
     18468     18466     18469     18471     18468     18466     18469     18472
     18469     18472     18474     18475     18469     18472     18474     18476
     18470     18469     18472     18473     18470     18469     18472     18474
     18471     18469     18472     18473     18471     18469     18472     18474
     18472     18474     18476     18477     18472     18474     18476     18478
     18472     18474     18476     18479     18473     18472     18474     18475
     18473     18472     18474     18476     18474     18476     18479     18480
     18474     18476     18479     18481     18474     18476     18479     18482
     18475     18474     18476     18477     18475     18474     18476     18478
     18475     18474     18476     18479     18476     18479     18482     18483
     18476     18479     18482     18484     18476     18479     18482     18485
     18477     18476     18479     18480     18477     18476     18479     18481
     18477     18476     18479     18482     18478     18476     18479     18480
     18478     18476     18479     18481     18478     18476     18479     18482
     18479     18482     18485     18486     18479     18482     18485     18487
     18479     18482     18485     18488     18480     18479     18482     18483
     18480     18479     18482     18484     18480     18479     18482     18485
     18481     18479     18482     18483     18481     18479     18482     18484
     18481     18479     18482     18485     18482     18485     18488     18489
     18482     18485     18488     18490     18482     18485     18488     18491
     18483     18482     18485     18486     18483     18482     18485     18487
     18483     18482     18485     18488     18484     18482     18485     18486
     18484     18482     18485     18487     18484     18482     18485     18488
     18485     18488     18491     18492     18485     18488     18491     18493
     18485     18488     18491     18494     18486     18485     18488     18489
     18486     18485     18488     18490     18486     18485     18488     18491
     18487     18485     18488     18489     18487     18485     18488     18490
     18487     18485     18488     18491     18488     18491     18494     18495
     18488     18491     18494     18496     18488     18491     18494     18497
     18489     18488     18491     18492     18489     18488     18491     18493
     18489     18488     18491     18494     18490     18488     18491     18492
     18490     18488     18491     18493     18490     18488     18491     18494
     18491     18494     18497     18498     18491     18494     18497     18499
     18491     18494     18497     18500     18492     18491     18494     18495
     18492     18491     18494     18496     18492     18491     18494     18497
     18493     18491     18494     18495     18493     18491     18494     18496
     18493     18491     18494     18497     18495     18494     18497     18498
     18495     18494     18497     18499     18495     18494     18497     18500
     18496     18494     18497     18498     18496     18494     18497     18499
     18496     18494     18497     18500     18501     18514     18517     18518
     18501     18514     18517     18519     18501     18514     18517     18524
     18502     18501     18506     18507     18502     18501     18506     18508
     18502     18501     18506     18509     18502     18501     18510     18511
     18502     18501     18510     18512     18502     18501     18510     18513
     18502     18501     18514     18515     18502     18501     18514     18516
     18502     18501     18514     18517     18503     18502     18501     18506
     18503     18502     18501     18510     18503     18502     18501     18514
     18504     18502     18501     18506     18504     18502     18501     18510
     18504     18502     18501     18514     18505     18502     18501     18506
     18505     18502     18501     18510     18505     18502     18501     18514
     18506     18501     18510     18511     18506     18501     18510     18512
     18506     18501     18510     18513     18506     18501     18514     18515
     18506     18501     18514     18516     18506     18501     18514     18517
     18507     18506     18501     18510     18507     18506     18501     18514
     18508     18506     18501     18510     18508     18506     18501     18514
     18509     18506     18501     18510     18509     18506     18501     18514
     18510     18501     18514     18515     18510     18501     18514     18516
     18510     18501     18514     18517     18511     18510     18501     18514
     18512     18510     18501     18514     18513     18510     18501     18514
     18514     18517     18524     18520     18515     18514     18517     18518
     18515     18514     18517     18519     18515     18514     18517     18524
     18516     18514     18517     18518     18516     18514     18517     18519
     18516     18514     18517     18524     18517     18524     18520     18521
     18517     18524     18520     18522     18517     18524     18520     18523
     18518     18517     18524     18520     18519     18517     18524     18520
     18520     18523     18525     18526     18520     18523     18525     18527
     18520     18523     18525     18530     18521     18520     18523     18525
     18522     18520     18523     18525     18523     18525     18530     18528
     18523     18525     18530     18531     18523     18525     18530     18532
     18524     18520     18523     18525     18525     18530     18528     18529
     18525     18530     18528     18580     18525     18530     18532     18533
     18525     18530     18532     18534     18525     18530     18532     18536
     18526     18525     18530     18528     18526     18525     18530     18531
     18526     18525     18530     18532     18527     18525     18530     18528
     18527     18525     18530     18531     18527     18525     18530     18532
     18528     18530     18532     18533     18528     18530     18532     18534
     18528     18530     18532     18536     18528     18580     18582     18583
     18528     18580     18582     18584     18528     18580     18582     18585
     18529     18528     18530     18531     18529     18528     18530     18532
     18529     18528     18580     18581     18529     18528     18580     18582
     18530     18528     18580     18581     18530     18528     18580     18582
     18530     18532     18534     18535     18530     18532     18536     18537
     18530     18532     18536     18538     18531     18530     18528     18580
     18531     18530     18532     18533     18531     18530     18532     18534
     18531     18530     18532     18536     18532     18530     18528     18580
     18532     18536     18538     18539     18532     18536     18538     18540
     18533     18532     18534     18535     18533     18532     18536     18537
     18533     18532     18536     18538     18534     18532     18536     18537
     18534     18532     18536     18538     18535     18534     18532     18536
     18536     18538     18540     18541     18536     18538     18540     18542
     18536     18538     18540     18543     18537     18536     18538     18539
     18537     18536     18538     18540     18538     18540     18543     18544
     18538     18540     18543     18545     18538     18540     18543     18546
     18539     18538     18540     18541     18539     18538     18540     18542
     18539     18538     18540     18543     18540     18543     18546     18547
     18540     18543     18546     18548     18540     18543     18546     18549
     18541     18540     18543     18544     18541     18540     18543     18545
     18541     18540     18543     18546     18542     18540     18543     18544
     18542     18540     18543     18545     18542     18540     18543     18546
     18543     18546     18549     18550     18543     18546     18549     18551
     18543     18546     18549     18552     18544     18543     18546     18547
     18544     18543     18546     18548     18544     18543     18546     18549
     18545     18543     18546     18547     18545     18543     18546     18548
     18545     18543     18546     18549     18546     18549     18552     18553
     18546     18549     18552     18554     18546     18549     18552     18555
     18547     18546     18549     18550     18547     18546     18549     18551
     18547     18546     18549     18552     18548     18546     18549     18550
     18548     18546     18549     18551     18548     18546     18549     18552
     18549     18552     18555     18556     18549     18552     18555     18557
     18549     18552     18555     18558     18550     18549     18552     18553
     18550     18549     18552     18554     18550     18549     18552     18555
     18551     18549     18552     18553     18551     18549     18552     18554
     18551     18549     18552     18555     18552     18555     18558     18559
     18552     18555     18558     18560     18552     18555     18558     18561
     18553     18552     18555     18556     18553     18552     18555     18557
     18553     18552     18555     18558     18554     18552     18555     18556
     18554     18552     18555     18557     18554     18552     18555     18558
     18555     18558     18561     18562     18555     18558     18561     18563
     18555     18558     18561     18564     18556     18555     18558     18559
     18556     18555     18558     18560     18556     18555     18558     18561
     18557     18555     18558     18559     18557     18555     18558     18560
     18557     18555     18558     18561     18558     18561     18564     18565
     18558     18561     18564     18566     18558     18561     18564     18567
     18559     18558     18561     18562     18559     18558     18561     18563
     18559     18558     18561     18564     18560     18558     18561     18562
     18560     18558     18561     18563     18560     18558     18561     18564
     18561     18564     18567     18568     18561     18564     18567     18569
     18561     18564     18567     18570     18562     18561     18564     18565
     18562     18561     18564     18566     18562     18561     18564     18567
     18563     18561     18564     18565     18563     18561     18564     18566
     18563     18561     18564     18567     18564     18567     18570     18571
     18564     18567     18570     18572     18564     18567     18570     18573
     18565     18564     18567     18568     18565     18564     18567     18569
     18565     18564     18567     18570     18566     18564     18567     18568
     18566     18564     18567     18569     18566     18564     18567     18570
     18567     18570     18573     18574     18567     18570     18573     18575
     18567     18570     18573     18576     18568     18567     18570     18571
     18568     18567     18570     18572     18568     18567     18570     18573
     18569     18567     18570     18571     18569     18567     18570     18572
     18569     18567     18570     18573     18570     18573     18576     18577
     18570     18573     18576     18578     18570     18573     18576     18579
     18571     18570     18573     18574     18571     18570     18573     18575
     18571     18570     18573     18576     18572     18570     18573     18574
     18572     18570     18573     18575     18572     18570     18573     18576
     18574     18573     18576     18577     18574     18573     18576     18578
     18574     18573     18576     18579     18575     18573     18576     18577
     18575     18573     18576     18578     18575     18573     18576     18579
     18580     18582     18585     18586     18580     18582     18585     18587
     18580     18582     18585     18588     18581     18580     18582     18583
     18581     18580     18582     18584     18581     18580     18582     18585
     18582     18585     18588     18589     18582     18585     18588     18590
     18582     18585     18588     18591     18583     18582     18585     18586
     18583     18582     18585     18587     18583     18582     18585     18588
     18584     18582     18585     18586     18584     18582     18585     18587
     18584     18582     18585     18588     18585     18588     18591     18592
     18585     18588     18591     18593     18585     18588     18591     18594
     18586     18585     18588     18589     18586     18585     18588     18590
     18586     18585     18588     18591     18587     18585     18588     18589
     18587     18585     18588     18590     18587     18585     18588     18591
     18588     18591     18594     18595     18588     18591     18594     18596
     18588     18591     18594     18597     18589     18588     18591     18592
     18589     18588     18591     18593     18589     18588     18591     18594
     18590     18588     18591     18592     18590     18588     18591     18593
     18590     18588     18591     18594     18591     18594     18597     18598
     18591     18594     18597     18599     18591     18594     18597     18600
     18592     18591     18594     18595     18592     18591     18594     18596
     18592     18591     18594     18597     18593     18591     18594     18595
     18593     18591     18594     18596     18593     18591     18594     18597
     18594     18597     18600     18601     18594     18597     18600     18602
     18594     18597     18600     18603     18595     18594     18597     18598
     18595     18594     18597     18599     18595     18594     18597     18600
     18596     18594     18597     18598     18596     18594     18597     18599
     18596     18594     18597     18600     18597     18600     18603     18604
     18597     18600     18603     18605     18598     18597     18600     18601
     18598     18597     18600     18602     18598     18597     18600     18603
     18599     18597     18600     18601     18599     18597     18600     18602
     18599     18597     18600     18603     18600     18603     18605     18606
     18600     18603     18605     18607     18601     18600     18603     18604
     18601     18600     18603     18605     18602     18600     18603     18604
     18602     18600     18603     18605     18603     18605     18607     18608
     18603     18605     18607     18609     18603     18605     18607     18610
     18604     18603     18605     18606     18604     18603     18605     18607
     18605     18607     18610     18611     18605     18607     18610     18612
     18605     18607     18610     18613     18606     18605     18607     18608
     18606     18605     18607     18609     18606     18605     18607     18610
     18607     18610     18613     18614     18607     18610     18613     18615
     18607     18610     18613     18616     18608     18607     18610     18611
     18608     18607     18610     18612     18608     18607     18610     18613
     18609     18607     18610     18611     18609     18607     18610     18612
     18609     18607     18610     18613     18610     18613     18616     18617
     18610     18613     18616     18618     18610     18613     18616     18619
     18611     18610     18613     18614     18611     18610     18613     18615
     18611     18610     18613     18616     18612     18610     18613     18614
     18612     18610     18613     18615     18612     18610     18613     18616
     18613     18616     18619     18620     18613     18616     18619     18621
     18613     18616     18619     18622     18614     18613     18616     18617
     18614     18613     18616     18618     18614     18613     18616     18619
     18615     18613     18616     18617     18615     18613     18616     18618
     18615     18613     18616     18619     18616     18619     18622     18623
     18616     18619     18622     18624     18616     18619     18622     18625
     18617     18616     18619     18620     18617     18616     18619     18621
     18617     18616     18619     18622     18618     18616     18619     18620
     18618     18616     18619     18621     18618     18616     18619     18622
     18619     18622     18625     18626     18619     18622     18625     18627
     18619     18622     18625     18628     18620     18619     18622     18623
     18620     18619     18622     18624     18620     18619     18622     18625
     18621     18619     18622     18623     18621     18619     18622     18624
     18621     18619     18622     18625     18622     18625     18628     18629
     18622     18625     18628     18630     18622     18625     18628     18631
     18623     18622     18625     18626     18623     18622     18625     18627
     18623     18622     18625     18628     18624     18622     18625     18626
     18624     18622     18625     18627     18624     18622     18625     18628
     18626     18625     18628     18629     18626     18625     18628     18630
     18626     18625     18628     18631     18627     18625     18628     18629
     18627     18625     18628     18630     18627     18625     18628     18631
     18632     18636     18639     18640     18632     18636     18639     18670
     18632     18678     18675     18670     18632     18678     18675     18676
     18632     18678     18675     18677     18633     18632     18634     18635
     18633     18632     18636     18637     18633     18632     18636     18638
     18633     18632     18636     18639     18633     18632     18678     18675
     18633     18632     18678     18679     18633     18632     18678     18680
     18634     18632     18636     18637     18634     18632     18636     18638
     18634     18632     18636     18639     18634     18632     18678     18675
     18634     18632     18678     18679     18634     18632     18678     18680
     18635     18634     18632     18636     18635     18634     18632     18678
     18636     18632     18678     18675     18636     18632     18678     18679
     18636     18632     18678     18680     18636     18639     18640     18641
     18636     18639     18640     18642     18636     18639     18670     18668
     18636     18639     18670     18671     18636     18639     18670     18675
     18637     18636     18632     18678     18637     18636     18639     18640
     18637     18636     18639     18670     18638     18636     18632     18678
     18638     18636     18639     18640     18638     18636     18639     18670
     18639     18636     18632     18678     18639     18640     18642     18643
     18639     18640     18642     18644     18639     18640     18642     18645
     18639     18670     18668     18645     18639     18670     18668     18665
     18639     18670     18668     18669     18639     18670     18671     18672
     18639     18670     18671     18673     18639     18670     18671     18674
     18639     18670     18675     18676     18639     18670     18675     18677
     18639     18670     18675     18678     18640     18639     18670     18668
     18640     18639     18670     18671     18640     18639     18670     18675
     18640     18642     18645     18646     18640     18642     18645     18647
     18640     18642     18645     18668     18641     18640     18639     18670
     18641     18640     18642     18643     18641     18640     18642     18644
     18641     18640     18642     18645     18642     18640     18639     18670
     18642     18645     18647     18648     18642     18645     18647     18649
     18642     18645     18647     18657     18642     18645     18668     18665
     18642     18645     18668     18669     18642     18645     18668     18670
     18643     18642     18645     18646     18643     18642     18645     18647
     18643     18642     18645     18668     18644     18642     18645     18646
     18644     18642     18645     18647     18644     18642     18645     18668
     18645     18647     18649     18650     18645     18647     18649     18651
     18645     18647     18649     18652     18645     18647     18657     18655
     18645     18647     18657     18658     18645     18647     18657     18662
     18645     18668     18665     18662     18645     18668     18665     18666
     18645     18668     18665     18667     18645     18668     18670     18671
     18645     18668     18670     18675     18646     18645     18647     18648
     18646     18645     18647     18649     18646     18645     18647     18657
     18646     18645     18668     18665     18646     18645     18668     18669
     18646     18645     18668     18670     18647     18645     18668     18665
     18647     18645     18668     18669     18647     18645     18668     18670
     18647     18649     18652     18653     18647     18649     18652     18654
     18647     18649     18652     18655     18647     18657     18655     18652
     18647     18657     18655     18656     18647     18657     18655     18681
     18647     18657     18658     18659     18647     18657     18658     18660
     18647     18657     18658     18661     18647     18657     18662     18663
     18647     18657     18662     18664     18647     18657     18662     18665
     18648     18647     18645     18668     18648     18647     18649     18650
     18648     18647     18649     18651     18648     18647     18649     18652
     18648     18647     18657     18655     18648     18647     18657     18658
     18648     18647     18657     18662     18649     18647     18645     18668
     18649     18647     18657     18655     18649     18647     18657     18658
     18649     18647     18657     18662     18649     18652     18655     18656
     18649     18652     18655     18657     18649     18652     18655     18681
     18650     18649     18647     18657     18650     18649     18652     18653
     18650     18649     18652     18654     18650     18649     18652     18655
     18651     18649     18647     18657     18651     18649     18652     18653
     18651     18649     18652     18654     18651     18649     18652     18655
     18652     18649     18647     18657     18652     18655     18657     18658
     18652     18655     18657     18662     18652     18655     18681     18682
     18652     18655     18681     18683     18652     18655     18681     18687
     18653     18652     18655     18656     18653     18652     18655     18657
     18653     18652     18655     18681     18654     18652     18655     18656
     18654     18652     18655     18657     18654     18652     18655     18681
     18655     18657     18658     18659     18655     18657     18658     18660
     18655     18657     18658     18661     18655     18657     18662     18663
     18655     18657     18662     18664     18655     18657     18662     18665
     18655     18681     18683     18684     18655     18681     18683     18685
     18655     18681     18683     18686     18655     18681     18687     18688
     18655     18681     18687     18689     18655     18681     18687     18690
     18656     18655     18657     18658     18656     18655     18657     18662
     18656     18655     18681     18682     18656     18655     18681     18683
     18656     18655     18681     18687     18657     18647     18645     18668
     18657     18655     18681     18682     18657     18655     18681     18683
     18657     18655     18681     18687     18657     18662     18665     18666
     18657     18662     18665     18667     18657     18662     18665     18668
     18658     18657     18655     18681     18658     18657     18662     18663
     18658     18657     18662     18664     18658     18657     18662     18665
     18659     18658     18657     18662     18660     18658     18657     18662
     18661     18658     18657     18662     18662     18657     18655     18681
     18662     18665     18668     18669     18662     18665     18668     18670
     18663     18662     18665     18666     18663     18662     18665     18667
     18663     18662     18665     18668     18664     18662     18665     18666
     18664     18662     18665     18667     18664     18662     18665     18668
     18665     18668     18670     18671     18665     18668     18670     18675
     18666     18665     18668     18669     18666     18665     18668     18670
     18667     18665     18668     18669     18667     18665     18668     18670
     18668     18670     18671     18672     18668     18670     18671     18673
     18668     18670     18671     18674     18668     18670     18675     18676
     18668     18670     18675     18677     18668     18670     18675     18678
     18669     18668     18670     18671     18669     18668     18670     18675
     18670     18675     18678     18679     18670     18675     18678     18680
     18671     18670     18675     18676     18671     18670     18675     18677
     18671     18670     18675     18678     18672     18671     18670     18675
     18673     18671     18670     18675     18674     18671     18670     18675
     18676     18675     18678     18679     18676     18675     18678     18680
     18677     18675     18678     18679     18677     18675     18678     18680
     18681     18687     18690     18691     18681     18687     18690     18692
     18681     18687     18690     18693     18682     18681     18683     18684
     18682     18681     18683     18685     18682     18681     18683     18686
     18682     18681     18687     18688     18682     18681     18687     18689
     18682     18681     18687     18690     18683     18681     18687     18688
     18683     18681     18687     18689     18683     18681     18687     18690
     18684     18683     18681     18687     18685     18683     18681     18687
     18686     18683     18681     18687     18687     18690     18693     18694
     18687     18690     18693     18695     18687     18690     18693     18696
     18688     18687     18690     18691     18688     18687     18690     18692
     18688     18687     18690     18693     18689     18687     18690     18691
     18689     18687     18690     18692     18689     18687     18690     18693
     18690     18693     18696     18697     18690     18693     18696     18698
     18690     18693     18696     18702     18691     18690     18693     18694
     18691     18690     18693     18695     18691     18690     18693     18696
     18692     18690     18693     18694     18692     18690     18693     18695
     18692     18690     18693     18696     18693     18696     18698     18699
     18693     18696     18698     18700     18693     18696     18698     18701
     18693     18696     18702     18703     18693     18696     18702     18704
     18693     18696     18702     18705     18694     18693     18696     18697
     18694     18693     18696     18698     18694     18693     18696     18702
     18695     18693     18696     18697     18695     18693     18696     18698
     18695     18693     18696     18702     18697     18696     18698     18699
     18697     18696     18698     18700     18697     18696     18698     18701
     18697     18696     18702     18703     18697     18696     18702     18704
     18697     18696     18702     18705     18698     18696     18702     18703
     18698     18696     18702     18704     18698     18696     18702     18705
     18699     18698     18696     18702     18700     18698     18696     18702
     18701     18698     18696     18702     18706     18710     18713     18714
     18706     18710     18713     18715     18706     18710     18713     18719
     18707     18706     18710     18711     18707     18706     18710     18712
     18707     18706     18710     18713     18708     18706     18710     18711
     18708     18706     18710     18712     18708     18706     18710     18713
     18709     18706     18710     18711     18709     18706     18710     18712
     18709     18706     18710     18713     18710     18713     18719     18716
     18711     18710     18713     18714     18711     18710     18713     18715
     18711     18710     18713     18719     18712     18710     18713     18714
     18712     18710     18713     18715     18712     18710     18713     18719
     18713     18719     18716     18717     18713     18719     18716     18718
     18713     18719     18716     18720     18714     18713     18719     18716
     18715     18713     18719     18716     18716     18720     18721     18722
     18716     18720     18721     18723     18716     18720     18721     18724
     18717     18716     18720     18721     18718     18716     18720     18721
     18719     18716     18720     18721     18720     18721     18724     18725
     18720     18721     18724     18726     18720     18721     18724     18732
     18721     18724     18726     18727     18721     18724     18732     18733
     18721     18724     18732     18734     18721     18724     18732     18735
     18722     18721     18724     18725     18722     18721     18724     18726
     18722     18721     18724     18732     18723     18721     18724     18725
     18723     18721     18724     18726     18723     18721     18724     18732
     18724     18726     18727     18728     18724     18726     18727     18729
     18724     18732     18735     18736     18725     18724     18726     18727
     18725     18724     18732     18733     18725     18724     18732     18734
     18725     18724     18732     18735     18726     18724     18732     18733
     18726     18724     18732     18734     18726     18724     18732     18735
     18726     18727     18729     18730     18726     18727     18729     18731
     18726     18727     18729     18741     18727     18726     18724     18732
     18727     18729     18741     18742     18727     18729     18741     18743
     18727     18729     18741     18744     18728     18727     18729     18730
     18728     18727     18729     18731     18728     18727     18729     18741
     18729     18741     18744     18745     18729     18741     18744     18746
     18729     18741     18744     18747     18730     18729     18741     18742
     18730     18729     18741     18743     18730     18729     18741     18744
     18731     18729     18741     18742     18731     18729     18741     18743
     18731     18729     18741     18744     18732     18735     18736     18737
     18732     18735     18736     18738     18733     18732     18735     18736
     18734     18732     18735     18736     18735     18736     18738     18739
     18735     18736     18738     18740     18735     18736     18738     18788
     18736     18738     18788     18789     18736     18738     18788     18790
     18736     18738     18788     18791     18737     18736     18738     18739
     18737     18736     18738     18740     18737     18736     18738     18788
     18738     18788     18791     18792     18738     18788     18791     18793
     18738     18788     18791     18794     18739     18738     18788     18789
     18739     18738     18788     18790     18739     18738     18788     18791
     18740     18738     18788     18789     18740     18738     18788     18790
     18740     18738     18788     18791     18741     18744     18747     18748
     18741     18744     18747     18749     18742     18741     18744     18745
     18742     18741     18744     18746     18742     18741     18744     18747
     18743     18741     18744     18745     18743     18741     18744     18746
     18743     18741     18744     18747     18744     18747     18749     18750
     18744     18747     18749     18751     18745     18744     18747     18748
     18745     18744     18747     18749     18746     18744     18747     18748
     18746     18744     18747     18749     18747     18749     18751     18752
     18747     18749     18751     18753     18747     18749     18751     18754
     18748     18747     18749     18750     18748     18747     18749     18751
     18749     18751     18754     18755     18749     18751     18754     18756
     18750     18749     18751     18752     18750     18749     18751     18753
     18750     18749     18751     18754     18751     18754     18756     18757
     18751     18754     18756     18758     18752     18751     18754     18755
     18752     18751     18754     18756     18753     18751     18754     18755
     18753     18751     18754     18756     18754     18756     18758     18759
     18754     18756     18758     18760     18754     18756     18758     18761
     18755     18754     18756     18757     18755     18754     18756     18758
     18756     18758     18761     18762     18756     18758     18761     18763
     18757     18756     18758     18759     18757     18756     18758     18760
     18757     18756     18758     18761     18758     18761     18763     18764
     18758     18761     18763     18765     18759     18758     18761     18762
     18759     18758     18761     18763     18760     18758     18761     18762
     18760     18758     18761     18763     18761     18763     18765     18766
     18761     18763     18765     18767     18761     18763     18765     18768
     18762     18761     18763     18764     18762     18761     18763     18765
     18763     18765     18768     18769     18763     18765     18768     18770
     18764     18763     18765     18766     18764     18763     18765     18767
     18764     18763     18765     18768     18765     18768     18770     18771
     18765     18768     18770     18772     18766     18765     18768     18769
     18766     18765     18768     18770     18767     18765     18768     18769
     18767     18765     18768     18770     18768     18770     18772     18773
     18768     18770     18772     18774     18768     18770     18772     18775
     18769     18768     18770     18771     18769     18768     18770     18772
     18770     18772     18775     18776     18770     18772     18775     18777
     18770     18772     18775     18778     18771     18770     18772     18773
     18771     18770     18772     18774     18771     18770     18772     18775
     18772     18775     18778     18779     18772     18775     18778     18780
     18772     18775     18778     18781     18773     18772     18775     18776
     18773     18772     18775     18777     18773     18772     18775     18778
     18774     18772     18775     18776     18774     18772     18775     18777
     18774     18772     18775     18778     18775     18778     18781     18782
     18775     18778     18781     18783     18775     18778     18781     18784
     18776     18775     18778     18779     18776     18775     18778     18780
     18776     18775     18778     18781     18777     18775     18778     18779
     18777     18775     18778     18780     18777     18775     18778     18781
     18778     18781     18784     18785     18778     18781     18784     18786
     18778     18781     18784     18787     18779     18778     18781     18782
     18779     18778     18781     18783     18779     18778     18781     18784
     18780     18778     18781     18782     18780     18778     18781     18783
     18780     18778     18781     18784     18782     18781     18784     18785
     18782     18781     18784     18786     18782     18781     18784     18787
     18783     18781     18784     18785     18783     18781     18784     18786
     18783     18781     18784     18787     18788     18791     18794     18795
     18788     18791     18794     18796     18788     18791     18794     18797
     18789     18788     18791     18792     18789     18788     18791     18793
     18789     18788     18791     18794     18790     18788     18791     18792
     18790     18788     18791     18793     18790     18788     18791     18794
     18791     18794     18797     18798     18791     18794     18797     18799
     18791     18794     18797     18800     18792     18791     18794     18795
     18792     18791     18794     18796     18792     18791     18794     18797
     18793     18791     18794     18795     18793     18791     18794     18796
     18793     18791     18794     18797     18794     18797     18800     18801
     18794     18797     18800     18802     18794     18797     18800     18803
     18795     18794     18797     18798     18795     18794     18797     18799
     18795     18794     18797     18800     18796     18794     18797     18798
     18796     18794     18797     18799     18796     18794     18797     18800
     18797     18800     18803     18804     18797     18800     18803     18805
     18797     18800     18803     18806     18798     18797     18800     18801
     18798     18797     18800     18802     18798     18797     18800     18803
     18799     18797     18800     18801     18799     18797     18800     18802
     18799     18797     18800     18803     18800     18803     18806     18807
     18800     18803     18806     18808     18800     18803     18806     18809
     18801     18800     18803     18804     18801     18800     18803     18805
     18801     18800     18803     18806     18802     18800     18803     18804
     18802     18800     18803     18805     18802     18800     18803     18806
     18803     18806     18809     18810     18803     18806     18809     18811
     18803     18806     18809     18812     18804     18803     18806     18807
     18804     18803     18806     18808     18804     18803     18806     18809
     18805     18803     18806     18807     18805     18803     18806     18808
     18805     18803     18806     18809     18806     18809     18812     18813
     18806     18809     18812     18814     18806     18809     18812     18815
     18807     18806     18809     18810     18807     18806     18809     18811
     18807     18806     18809     18812     18808     18806     18809     18810
     18808     18806     18809     18811     18808     18806     18809     18812
     18809     18812     18815     18816     18809     18812     18815     18817
     18809     18812     18815     18818     18810     18809     18812     18813
     18810     18809     18812     18814     18810     18809     18812     18815
     18811     18809     18812     18813     18811     18809     18812     18814
     18811     18809     18812     18815     18812     18815     18818     18819
     18812     18815     18818     18820     18812     18815     18818     18821
     18813     18812     18815     18816     18813     18812     18815     18817
     18813     18812     18815     18818     18814     18812     18815     18816
     18814     18812     18815     18817     18814     18812     18815     18818
     18815     18818     18821     18822     18815     18818     18821     18823
     18815     18818     18821     18824     18816     18815     18818     18819
     18816     18815     18818     18820     18816     18815     18818     18821
     18817     18815     18818     18819     18817     18815     18818     18820
     18817     18815     18818     18821     18818     18821     18824     18825
     18818     18821     18824     18826     18818     18821     18824     18827
     18819     18818     18821     18822     18819     18818     18821     18823
     18819     18818     18821     18824     18820     18818     18821     18822
     18820     18818     18821     18823     18820     18818     18821     18824
     18821     18824     18827     18828     18821     18824     18827     18829
     18821     18824     18827     18830     18822     18821     18824     18825
     18822     18821     18824     18826     18822     18821     18824     18827
     18823     18821     18824     18825     18823     18821     18824     18826
     18823     18821     18824     18827     18824     18827     18830     18831
     18824     18827     18830     18832     18824     18827     18830     18833
     18825     18824     18827     18828     18825     18824     18827     18829
     18825     18824     18827     18830     18826     18824     18827     18828
     18826     18824     18827     18829     18826     18824     18827     18830
     18827     18830     18833     18834     18827     18830     18833     18835
     18827     18830     18833     18836     18828     18827     18830     18831
     18828     18827     18830     18832     18828     18827     18830     18833
     18829     18827     18830     18831     18829     18827     18830     18832
     18829     18827     18830     18833     18831     18830     18833     18834
     18831     18830     18833     18835     18831     18830     18833     18836
     18832     18830     18833     18834     18832     18830     18833     18835
     18832     18830     18833     18836     18837     18841     18844     18845
     18837     18841     18844     18875     18837     18883     18880     18875
     18837     18883     18880     18881     18837     18883     18880     18882
     18838     18837     18839     18840     18838     18837     18841     18842
     18838     18837     18841     18843     18838     18837     18841     18844
     18838     18837     18883     18880     18838     18837     18883     18884
     18838     18837     18883     18885     18839     18837     18841     18842
     18839     18837     18841     18843     18839     18837     18841     18844
     18839     18837     18883     18880     18839     18837     18883     18884
     18839     18837     18883     18885     18840     18839     18837     18841
     18840     18839     18837     18883     18841     18837     18883     18880
     18841     18837     18883     18884     18841     18837     18883     18885
     18841     18844     18845     18846     18841     18844     18845     18847
     18841     18844     18875     18873     18841     18844     18875     18876
     18841     18844     18875     18880     18842     18841     18837     18883
     18842     18841     18844     18845     18842     18841     18844     18875
     18843     18841     18837     18883     18843     18841     18844     18845
     18843     18841     18844     18875     18844     18841     18837     18883
     18844     18845     18847     18848     18844     18845     18847     18849
     18844     18845     18847     18850     18844     18875     18873     18850
     18844     18875     18873     18870     18844     18875     18873     18874
     18844     18875     18876     18877     18844     18875     18876     18878
     18844     18875     18876     18879     18844     18875     18880     18881
     18844     18875     18880     18882     18844     18875     18880     18883
     18845     18844     18875     18873     18845     18844     18875     18876
     18845     18844     18875     18880     18845     18847     18850     18851
     18845     18847     18850     18852     18845     18847     18850     18873
     18846     18845     18844     18875     18846     18845     18847     18848
     18846     18845     18847     18849     18846     18845     18847     18850
     18847     18845     18844     18875     18847     18850     18852     18853
     18847     18850     18852     18854     18847     18850     18852     18862
     18847     18850     18873     18870     18847     18850     18873     18874
     18847     18850     18873     18875     18848     18847     18850     18851
     18848     18847     18850     18852     18848     18847     18850     18873
     18849     18847     18850     18851     18849     18847     18850     18852
     18849     18847     18850     18873     18850     18852     18854     18855
     18850     18852     18854     18856     18850     18852     18854     18857
     18850     18852     18862     18860     18850     18852     18862     18863
     18850     18852     18862     18867     18850     18873     18870     18867
     18850     18873     18870     18871     18850     18873     18870     18872
     18850     18873     18875     18876     18850     18873     18875     18880
     18851     18850     18852     18853     18851     18850     18852     18854
     18851     18850     18852     18862     18851     18850     18873     18870
     18851     18850     18873     18874     18851     18850     18873     18875
     18852     18850     18873     18870     18852     18850     18873     18874
     18852     18850     18873     18875     18852     18854     18857     18858
     18852     18854     18857     18859     18852     18854     18857     18860
     18852     18862     18860     18857     18852     18862     18860     18861
     18852     18862     18860     18886     18852     18862     18863     18864
     18852     18862     18863     18865     18852     18862     18863     18866
     18852     18862     18867     18868     18852     18862     18867     18869
     18852     18862     18867     18870     18853     18852     18850     18873
     18853     18852     18854     18855     18853     18852     18854     18856
     18853     18852     18854     18857     18853     18852     18862     18860
     18853     18852     18862     18863     18853     18852     18862     18867
     18854     18852     18850     18873     18854     18852     18862     18860
     18854     18852     18862     18863     18854     18852     18862     18867
     18854     18857     18860     18861     18854     18857     18860     18862
     18854     18857     18860     18886     18855     18854     18852     18862
     18855     18854     18857     18858     18855     18854     18857     18859
     18855     18854     18857     18860     18856     18854     18852     18862
     18856     18854     18857     18858     18856     18854     18857     18859
     18856     18854     18857     18860     18857     18854     18852     18862
     18857     18860     18862     18863     18857     18860     18862     18867
     18857     18860     18886     18887     18857     18860     18886     18888
     18857     18860     18886     18892     18858     18857     18860     18861
     18858     18857     18860     18862     18858     18857     18860     18886
     18859     18857     18860     18861     18859     18857     18860     18862
     18859     18857     18860     18886     18860     18862     18863     18864
     18860     18862     18863     18865     18860     18862     18863     18866
     18860     18862     18867     18868     18860     18862     18867     18869
     18860     18862     18867     18870     18860     18886     18888     18889
     18860     18886     18888     18890     18860     18886     18888     18891
     18860     18886     18892     18893     18860     18886     18892     18894
     18860     18886     18892     18895     18861     18860     18862     18863
     18861     18860     18862     18867     18861     18860     18886     18887
     18861     18860     18886     18888     18861     18860     18886     18892
     18862     18852     18850     18873     18862     18860     18886     18887
     18862     18860     18886     18888     18862     18860     18886     18892
     18862     18867     18870     18871     18862     18867     18870     18872
     18862     18867     18870     18873     18863     18862     18860     18886
     18863     18862     18867     18868     18863     18862     18867     18869
     18863     18862     18867     18870     18864     18863     18862     18867
     18865     18863     18862     18867     18866     18863     18862     18867
     18867     18862     18860     18886     18867     18870     18873     18874
     18867     18870     18873     18875     18868     18867     18870     18871
     18868     18867     18870     18872     18868     18867     18870     18873
     18869     18867     18870     18871     18869     18867     18870     18872
     18869     18867     18870     18873     18870     18873     18875     18876
     18870     18873     18875     18880     18871     18870     18873     18874
     18871     18870     18873     18875     18872     18870     18873     18874
     18872     18870     18873     18875     18873     18875     18876     18877
     18873     18875     18876     18878     18873     18875     18876     18879
     18873     18875     18880     18881     18873     18875     18880     18882
     18873     18875     18880     18883     18874     18873     18875     18876
     18874     18873     18875     18880     18875     18880     18883     18884
     18875     18880     18883     18885     18876     18875     18880     18881
     18876     18875     18880     18882     18876     18875     18880     18883
     18877     18876     18875     18880     18878     18876     18875     18880
     18879     18876     18875     18880     18881     18880     18883     18884
     18881     18880     18883     18885     18882     18880     18883     18884
     18882     18880     18883     18885     18886     18892     18895     18896
     18886     18892     18895     18897     18886     18892     18895     18898
     18887     18886     18888     18889     18887     18886     18888     18890
     18887     18886     18888     18891     18887     18886     18892     18893
     18887     18886     18892     18894     18887     18886     18892     18895
     18888     18886     18892     18893     18888     18886     18892     18894
     18888     18886     18892     18895     18889     18888     18886     18892
     18890     18888     18886     18892     18891     18888     18886     18892
     18892     18895     18898     18899     18892     18895     18898     18900
     18892     18895     18898     18901     18893     18892     18895     18896
     18893     18892     18895     18897     18893     18892     18895     18898
     18894     18892     18895     18896     18894     18892     18895     18897
     18894     18892     18895     18898     18895     18898     18901     18902
     18895     18898     18901     18903     18895     18898     18901     18907
     18896     18895     18898     18899     18896     18895     18898     18900
     18896     18895     18898     18901     18897     18895     18898     18899
     18897     18895     18898     18900     18897     18895     18898     18901
     18898     18901     18903     18904     18898     18901     18903     18905
     18898     18901     18903     18906     18898     18901     18907     18908
     18898     18901     18907     18909     18898     18901     18907     18910
     18899     18898     18901     18902     18899     18898     18901     18903
     18899     18898     18901     18907     18900     18898     18901     18902
     18900     18898     18901     18903     18900     18898     18901     18907
     18902     18901     18903     18904     18902     18901     18903     18905
     18902     18901     18903     18906     18902     18901     18907     18908
     18902     18901     18907     18909     18902     18901     18907     18910
     18903     18901     18907     18908     18903     18901     18907     18909
     18903     18901     18907     18910     18904     18903     18901     18907
     18905     18903     18901     18907     18906     18903     18901     18907
     18911     18912     18927     18928     18911     18912     18927     18929
     18911     18912     18927     18933     18912     18911     18915     18916
     18912     18911     18915     18917     18912     18911     18915     18918
     18912     18911     18919     18920     18912     18911     18919     18921
     18912     18911     18919     18922     18912     18911     18923     18924
     18912     18911     18923     18925     18912     18911     18923     18926
     18912     18927     18933     18930     18913     18912     18911     18915
     18913     18912     18911     18919     18913     18912     18911     18923
     18913     18912     18927     18928     18913     18912     18927     18929
     18913     18912     18927     18933     18914     18912     18911     18915
     18914     18912     18911     18919     18914     18912     18911     18923
     18914     18912     18927     18928     18914     18912     18927     18929
     18914     18912     18927     18933     18915     18911     18912     18927
     18915     18911     18919     18920     18915     18911     18919     18921
     18915     18911     18919     18922     18915     18911     18923     18924
     18915     18911     18923     18925     18915     18911     18923     18926
     18916     18915     18911     18919     18916     18915     18911     18923
     18917     18915     18911     18919     18917     18915     18911     18923
     18918     18915     18911     18919     18918     18915     18911     18923
     18919     18911     18912     18927     18919     18911     18923     18924
     18919     18911     18923     18925     18919     18911     18923     18926
     18920     18919     18911     18923     18921     18919     18911     18923
     18922     18919     18911     18923     18923     18911     18912     18927
     18927     18933     18930     18931     18927     18933     18930     18932
     18927     18933     18930     18934     18928     18927     18933     18930
     18929     18927     18933     18930     18930     18934     18935     18936
     18930     18934     18935     18937     18930     18934     18935     18938
     18931     18930     18934     18935     18932     18930     18934     18935
     18933     18930     18934     18935     18934     18935     18938     18939
     18934     18935     18938     18940     18934     18935     18938     18946
     18935     18938     18940     18941     18935     18938     18946     18947
     18935     18938     18946     18948     18935     18938     18946     18949
     18936     18935     18938     18939     18936     18935     18938     18940
     18936     18935     18938     18946     18937     18935     18938     18939
     18937     18935     18938     18940     18937     18935     18938     18946
     18938     18940     18941     18942     18938     18940     18941     18943
     18938     18946     18949     18950     18939     18938     18940     18941
     18939     18938     18946     18947     18939     18938     18946     18948
     18939     18938     18946     18949     18940     18938     18946     18947
     18940     18938     18946     18948     18940     18938     18946     18949
     18940     18941     18943     18944     18940     18941     18943     18945
     18940     18941     18943     18955     18941     18940     18938     18946
     18941     18943     18955     18956     18941     18943     18955     18957
     18941     18943     18955     18958     18942     18941     18943     18944
     18942     18941     18943     18945     18942     18941     18943     18955
     18943     18955     18958     18959     18943     18955     18958     18960
     18943     18955     18958     18961     18944     18943     18955     18956
     18944     18943     18955     18957     18944     18943     18955     18958
     18945     18943     18955     18956     18945     18943     18955     18957
     18945     18943     18955     18958     18946     18949     18950     18951
     18946     18949     18950     18952     18947     18946     18949     18950
     18948     18946     18949     18950     18949     18950     18952     18953
     18949     18950     18952     18954     18949     18950     18952     19002
     18950     18952     19002     19003     18950     18952     19002     19004
     18950     18952     19002     19005     18951     18950     18952     18953
     18951     18950     18952     18954     18951     18950     18952     19002
     18952     19002     19005     19006     18952     19002     19005     19007
     18952     19002     19005     19008     18953     18952     19002     19003
     18953     18952     19002     19004     18953     18952     19002     19005
     18954     18952     19002     19003     18954     18952     19002     19004
     18954     18952     19002     19005     18955     18958     18961     18962
     18955     18958     18961     18963     18955     18958     18961     18964
     18956     18955     18958     18959     18956     18955     18958     18960
     18956     18955     18958     18961     18957     18955     18958     18959
     18957     18955     18958     18960     18957     18955     18958     18961
     18958     18961     18964     18965     18958     18961     18964     18966
     18958     18961     18964     18967     18959     18958     18961     18962
     18959     18958     18961     18963     18959     18958     18961     18964
     18960     18958     18961     18962     18960     18958     18961     18963
     18960     18958     18961     18964     18961     18964     18967     18968
     18961     18964     18967     18969     18961     18964     18967     18970
     18962     18961     18964     18965     18962     18961     18964     18966
     18962     18961     18964     18967     18963     18961     18964     18965
     18963     18961     18964     18966     18963     18961     18964     18967
     18964     18967     18970     18971     18964     18967     18970     18972
     18964     18967     18970     18973     18965     18964     18967     18968
     18965     18964     18967     18969     18965     18964     18967     18970
     18966     18964     18967     18968     18966     18964     18967     18969
     18966     18964     18967     18970     18967     18970     18973     18974
     18967     18970     18973     18975     18968     18967     18970     18971
     18968     18967     18970     18972     18968     18967     18970     18973
     18969     18967     18970     18971     18969     18967     18970     18972
     18969     18967     18970     18973     18970     18973     18975     18976
     18970     18973     18975     18977     18971     18970     18973     18974
     18971     18970     18973     18975     18972     18970     18973     18974
     18972     18970     18973     18975     18973     18975     18977     18978
     18973     18975     18977     18979     18973     18975     18977     18980
     18974     18973     18975     18976     18974     18973     18975     18977
     18975     18977     18980     18981     18975     18977     18980     18982
     18975     18977     18980     18983     18976     18975     18977     18978
     18976     18975     18977     18979     18976     18975     18977     18980
     18977     18980     18983     18984     18977     18980     18983     18985
     18977     18980     18983     18986     18978     18977     18980     18981
     18978     18977     18980     18982     18978     18977     18980     18983
     18979     18977     18980     18981     18979     18977     18980     18982
     18979     18977     18980     18983     18980     18983     18986     18987
     18980     18983     18986     18988     18980     18983     18986     18989
     18981     18980     18983     18984     18981     18980     18983     18985
     18981     18980     18983     18986     18982     18980     18983     18984
     18982     18980     18983     18985     18982     18980     18983     18986
     18983     18986     18989     18990     18983     18986     18989     18991
     18983     18986     18989     18992     18984     18983     18986     18987
     18984     18983     18986     18988     18984     18983     18986     18989
     18985     18983     18986     18987     18985     18983     18986     18988
     18985     18983     18986     18989     18986     18989     18992     18993
     18986     18989     18992     18994     18986     18989     18992     18995
     18987     18986     18989     18990     18987     18986     18989     18991
     18987     18986     18989     18992     18988     18986     18989     18990
     18988     18986     18989     18991     18988     18986     18989     18992
     18989     18992     18995     18996     18989     18992     18995     18997
     18989     18992     18995     18998     18990     18989     18992     18993
     18990     18989     18992     18994     18990     18989     18992     18995
     18991     18989     18992     18993     18991     18989     18992     18994
     18991     18989     18992     18995     18992     18995     18998     18999
     18992     18995     18998     19000     18992     18995     18998     19001
     18993     18992     18995     18996     18993     18992     18995     18997
     18993     18992     18995     18998     18994     18992     18995     18996
     18994     18992     18995     18997     18994     18992     18995     18998
     18996     18995     18998     18999     18996     18995     18998     19000
     18996     18995     18998     19001     18997     18995     18998     18999
     18997     18995     18998     19000     18997     18995     18998     19001
     19002     19005     19008     19009     19002     19005     19008     19010
     19002     19005     19008     19011     19003     19002     19005     19006
     19003     19002     19005     19007     19003     19002     19005     19008
     19004     19002     19005     19006     19004     19002     19005     19007
     19004     19002     19005     19008     19005     19008     19011     19012
     19005     19008     19011     19013     19005     19008     19011     19014
     19006     19005     19008     19009     19006     19005     19008     19010
     19006     19005     19008     19011     19007     19005     19008     19009
     19007     19005     19008     19010     19007     19005     19008     19011
     19008     19011     19014     19015     19008     19011     19014     19016
     19008     19011     19014     19017     19009     19008     19011     19012
     19009     19008     19011     19013     19009     19008     19011     19014
     19010     19008     19011     19012     19010     19008     19011     19013
     19010     19008     19011     19014     19011     19014     19017     19018
     19011     19014     19017     19019     19011     19014     19017     19020
     19012     19011     19014     19015     19012     19011     19014     19016
     19012     19011     19014     19017     19013     19011     19014     19015
     19013     19011     19014     19016     19013     19011     19014     19017
     19014     19017     19020     19021     19014     19017     19020     19022
     19014     19017     19020     19023     19015     19014     19017     19018
     19015     19014     19017     19019     19015     19014     19017     19020
     19016     19014     19017     19018     19016     19014     19017     19019
     19016     19014     19017     19020     19017     19020     19023     19024
     19017     19020     19023     19025     19017     19020     19023     19026
     19018     19017     19020     19021     19018     19017     19020     19022
     19018     19017     19020     19023     19019     19017     19020     19021
     19019     19017     19020     19022     19019     19017     19020     19023
     19020     19023     19026     19027     19020     19023     19026     19028
     19020     19023     19026     19029     19021     19020     19023     19024
     19021     19020     19023     19025     19021     19020     19023     19026
     19022     19020     19023     19024     19022     19020     19023     19025
     19022     19020     19023     19026     19023     19026     19029     19030
     19023     19026     19029     19031     19023     19026     19029     19032
     19024     19023     19026     19027     19024     19023     19026     19028
     19024     19023     19026     19029     19025     19023     19026     19027
     19025     19023     19026     19028     19025     19023     19026     19029
     19026     19029     19032     19033     19026     19029     19032     19034
     19026     19029     19032     19035     19027     19026     19029     19030
     19027     19026     19029     19031     19027     19026     19029     19032
     19028     19026     19029     19030     19028     19026     19029     19031
     19028     19026     19029     19032     19029     19032     19035     19036
     19029     19032     19035     19037     19029     19032     19035     19038
     19030     19029     19032     19033     19030     19029     19032     19034
     19030     19029     19032     19035     19031     19029     19032     19033
     19031     19029     19032     19034     19031     19029     19032     19035
     19032     19035     19038     19039     19032     19035     19038     19040
     19032     19035     19038     19041     19033     19032     19035     19036
     19033     19032     19035     19037     19033     19032     19035     19038
     19034     19032     19035     19036     19034     19032     19035     19037
     19034     19032     19035     19038     19035     19038     19041     19042
     19035     19038     19041     19043     19035     19038     19041     19044
     19036     19035     19038     19039     19036     19035     19038     19040
     19036     19035     19038     19041     19037     19035     19038     19039
     19037     19035     19038     19040     19037     19035     19038     19041
     19039     19038     19041     19042     19039     19038     19041     19043
     19039     19038     19041     19044     19040     19038     19041     19042
     19040     19038     19041     19043     19040     19038     19041     19044
     19045     19049     19052     19053     19045     19049     19052     19083
     19045     19091     19088     19083     19045     19091     19088     19089
     19045     19091     19088     19090     19046     19045     19047     19048
     19046     19045     19049     19050     19046     19045     19049     19051
     19046     19045     19049     19052     19046     19045     19091     19088
     19046     19045     19091     19092     19046     19045     19091     19093
     19047     19045     19049     19050     19047     19045     19049     19051
     19047     19045     19049     19052     19047     19045     19091     19088
     19047     19045     19091     19092     19047     19045     19091     19093
     19048     19047     19045     19049     19048     19047     19045     19091
     19049     19045     19091     19088     19049     19045     19091     19092
     19049     19045     19091     19093     19049     19052     19053     19054
     19049     19052     19053     19055     19049     19052     19083     19081
     19049     19052     19083     19084     19049     19052     19083     19088
     19050     19049     19045     19091     19050     19049     19052     19053
     19050     19049     19052     19083     19051     19049     19045     19091
     19051     19049     19052     19053     19051     19049     19052     19083
     19052     19049     19045     19091     19052     19053     19055     19056
     19052     19053     19055     19057     19052     19053     19055     19058
     19052     19083     19081     19058     19052     19083     19081     19078
     19052     19083     19081     19082     19052     19083     19084     19085
     19052     19083     19084     19086     19052     19083     19084     19087
     19052     19083     19088     19089     19052     19083     19088     19090
     19052     19083     19088     19091     19053     19052     19083     19081
     19053     19052     19083     19084     19053     19052     19083     19088
     19053     19055     19058     19059     19053     19055     19058     19060
     19053     19055     19058     19081     19054     19053     19052     19083
     19054     19053     19055     19056     19054     19053     19055     19057
     19054     19053     19055     19058     19055     19053     19052     19083
     19055     19058     19060     19061     19055     19058     19060     19062
     19055     19058     19060     19070     19055     19058     19081     19078
     19055     19058     19081     19082     19055     19058     19081     19083
     19056     19055     19058     19059     19056     19055     19058     19060
     19056     19055     19058     19081     19057     19055     19058     19059
     19057     19055     19058     19060     19057     19055     19058     19081
     19058     19060     19062     19063     19058     19060     19062     19064
     19058     19060     19062     19065     19058     19060     19070     19068
     19058     19060     19070     19071     19058     19060     19070     19075
     19058     19081     19078     19075     19058     19081     19078     19079
     19058     19081     19078     19080     19058     19081     19083     19084
     19058     19081     19083     19088     19059     19058     19060     19061
     19059     19058     19060     19062     19059     19058     19060     19070
     19059     19058     19081     19078     19059     19058     19081     19082
     19059     19058     19081     19083     19060     19058     19081     19078
     19060     19058     19081     19082     19060     19058     19081     19083
     19060     19062     19065     19066     19060     19062     19065     19067
     19060     19062     19065     19068     19060     19070     19068     19065
     19060     19070     19068     19069     19060     19070     19068     19094
     19060     19070     19071     19072     19060     19070     19071     19073
     19060     19070     19071     19074     19060     19070     19075     19076
     19060     19070     19075     19077     19060     19070     19075     19078
     19061     19060     19058     19081     19061     19060     19062     19063
     19061     19060     19062     19064     19061     19060     19062     19065
     19061     19060     19070     19068     19061     19060     19070     19071
     19061     19060     19070     19075     19062     19060     19058     19081
     19062     19060     19070     19068     19062     19060     19070     19071
     19062     19060     19070     19075     19062     19065     19068     19069
     19062     19065     19068     19070     19062     19065     19068     19094
     19063     19062     19060     19070     19063     19062     19065     19066
     19063     19062     19065     19067     19063     19062     19065     19068
     19064     19062     19060     19070     19064     19062     19065     19066
     19064     19062     19065     19067     19064     19062     19065     19068
     19065     19062     19060     19070     19065     19068     19070     19071
     19065     19068     19070     19075     19065     19068     19094     19095
     19065     19068     19094     19096     19065     19068     19094     19100
     19066     19065     19068     19069     19066     19065     19068     19070
     19066     19065     19068     19094     19067     19065     19068     19069
     19067     19065     19068     19070     19067     19065     19068     19094
     19068     19070     19071     19072     19068     19070     19071     19073
     19068     19070     19071     19074     19068     19070     19075     19076
     19068     19070     19075     19077     19068     19070     19075     19078
     19068     19094     19096     19097     19068     19094     19096     19098
     19068     19094     19096     19099     19068     19094     19100     19101
     19068     19094     19100     19102     19068     19094     19100     19103
     19069     19068     19070     19071     19069     19068     19070     19075
     19069     19068     19094     19095     19069     19068     19094     19096
     19069     19068     19094     19100     19070     19060     19058     19081
     19070     19068     19094     19095     19070     19068     19094     19096
     19070     19068     19094     19100     19070     19075     19078     19079
     19070     19075     19078     19080     19070     19075     19078     19081
     19071     19070     19068     19094     19071     19070     19075     19076
     19071     19070     19075     19077     19071     19070     19075     19078
     19072     19071     19070     19075     19073     19071     19070     19075
     19074     19071     19070     19075     19075     19070     19068     19094
     19075     19078     19081     19082     19075     19078     19081     19083
     19076     19075     19078     19079     19076     19075     19078     19080
     19076     19075     19078     19081     19077     19075     19078     19079
     19077     19075     19078     19080     19077     19075     19078     19081
     19078     19081     19083     19084     19078     19081     19083     19088
     19079     19078     19081     19082     19079     19078     19081     19083
     19080     19078     19081     19082     19080     19078     19081     19083
     19081     19083     19084     19085     19081     19083     19084     19086
     19081     19083     19084     19087     19081     19083     19088     19089
     19081     19083     19088     19090     19081     19083     19088     19091
     19082     19081     19083     19084     19082     19081     19083     19088
     19083     19088     19091     19092     19083     19088     19091     19093
     19084     19083     19088     19089     19084     19083     19088     19090
     19084     19083     19088     19091     19085     19084     19083     19088
     19086     19084     19083     19088     19087     19084     19083     19088
     19089     19088     19091     19092     19089     19088     19091     19093
     19090     19088     19091     19092     19090     19088     19091     19093
     19094     19100     19103     19104     19094     19100     19103     19105
     19094     19100     19103     19106     19095     19094     19096     19097
     19095     19094     19096     19098     19095     19094     19096     19099
     19095     19094     19100     19101     19095     19094     19100     19102
     19095     19094     19100     19103     19096     19094     19100     19101
     19096     19094     19100     19102     19096     19094     19100     19103
     19097     19096     19094     19100     19098     19096     19094     19100
     19099     19096     19094     19100     19100     19103     19106     19107
     19100     19103     19106     19108     19100     19103     19106     19109
     19101     19100     19103     19104     19101     19100     19103     19105
     19101     19100     19103     19106     19102     19100     19103     19104
     19102     19100     19103     19105     19102     19100     19103     19106
     19103     19106     19109     19110     19103     19106     19109     19111
     19103     19106     19109     19115     19104     19103     19106     19107
     19104     19103     19106     19108     19104     19103     19106     19109
     19105     19103     19106     19107     19105     19103     19106     19108
     19105     19103     19106     19109     19106     19109     19111     19112
     19106     19109     19111     19113     19106     19109     19111     19114
     19106     19109     19115     19116     19106     19109     19115     19117
     19106     19109     19115     19118     19107     19106     19109     19110
     19107     19106     19109     19111     19107     19106     19109     19115
     19108     19106     19109     19110     19108     19106     19109     19111
     19108     19106     19109     19115     19110     19109     19111     19112
     19110     19109     19111     19113     19110     19109     19111     19114
     19110     19109     19115     19116     19110     19109     19115     19117
     19110     19109     19115     19118     19111     19109     19115     19116
     19111     19109     19115     19117     19111     19109     19115     19118
     19112     19111     19109     19115     19113     19111     19109     19115
     19114     19111     19109     19115     19119     19120     19135     19136
     19119     19120     19135     19137     19119     19120     19135     19141
     19120     19119     19123     19124     19120     19119     19123     19125
     19120     19119     19123     19126     19120     19119     19127     19128
     19120     19119     19127     19129     19120     19119     19127     19130
     19120     19119     19131     19132     19120     19119     19131     19133
     19120     19119     19131     19134     19120     19135     19141     19138
     19121     19120     19119     19123     19121     19120     19119     19127
     19121     19120     19119     19131     19121     19120     19135     19136
     19121     19120     19135     19137     19121     19120     19135     19141
     19122     19120     19119     19123     19122     19120     19119     19127
     19122     19120     19119     19131     19122     19120     19135     19136
     19122     19120     19135     19137     19122     19120     19135     19141
     19123     19119     19120     19135     19123     19119     19127     19128
     19123     19119     19127     19129     19123     19119     19127     19130
     19123     19119     19131     19132     19123     19119     19131     19133
     19123     19119     19131     19134     19124     19123     19119     19127
     19124     19123     19119     19131     19125     19123     19119     19127
     19125     19123     19119     19131     19126     19123     19119     19127
     19126     19123     19119     19131     19127     19119     19120     19135
     19127     19119     19131     19132     19127     19119     19131     19133
     19127     19119     19131     19134     19128     19127     19119     19131
     19129     19127     19119     19131     19130     19127     19119     19131
     19131     19119     19120     19135     19135     19141     19138     19139
     19135     19141     19138     19140     19135     19141     19138     19142
     19136     19135     19141     19138     19137     19135     19141     19138
     19138     19142     19143     19144     19138     19142     19143     19145
     19138     19142     19143     19146     19139     19138     19142     19143
     19140     19138     19142     19143     19141     19138     19142     19143
     19142     19143     19146     19147     19142     19143     19146     19148
     19142     19143     19146     19154     19143     19146     19148     19149
     19143     19146     19154     19155     19143     19146     19154     19156
     19143     19146     19154     19157     19144     19143     19146     19147
     19144     19143     19146     19148     19144     19143     19146     19154
     19145     19143     19146     19147     19145     19143     19146     19148
     19145     19143     19146     19154     19146     19148     19149     19150
     19146     19148     19149     19151     19146     19154     19157     19158
     19147     19146     19148     19149     19147     19146     19154     19155
     19147     19146     19154     19156     19147     19146     19154     19157
     19148     19146     19154     19155     19148     19146     19154     19156
     19148     19146     19154     19157     19148     19149     19151     19152
     19148     19149     19151     19153     19148     19149     19151     19163
     19149     19148     19146     19154     19149     19151     19163     19164
     19149     19151     19163     19165     19149     19151     19163     19166
     19150     19149     19151     19152     19150     19149     19151     19153
     19150     19149     19151     19163     19151     19163     19166     19167
     19151     19163     19166     19168     19151     19163     19166     19169
     19152     19151     19163     19164     19152     19151     19163     19165
     19152     19151     19163     19166     19153     19151     19163     19164
     19153     19151     19163     19165     19153     19151     19163     19166
     19154     19157     19158     19159     19154     19157     19158     19160
     19155     19154     19157     19158     19156     19154     19157     19158
     19157     19158     19160     19161     19157     19158     19160     19162
     19157     19158     19160     19210     19158     19160     19210     19211
     19158     19160     19210     19212     19158     19160     19210     19213
     19159     19158     19160     19161     19159     19158     19160     19162
     19159     19158     19160     19210     19160     19210     19213     19214
     19160     19210     19213     19215     19160     19210     19213     19216
     19161     19160     19210     19211     19161     19160     19210     19212
     19161     19160     19210     19213     19162     19160     19210     19211
     19162     19160     19210     19212     19162     19160     19210     19213
     19163     19166     19169     19170     19163     19166     19169     19171
     19164     19163     19166     19167     19164     19163     19166     19168
     19164     19163     19166     19169     19165     19163     19166     19167
     19165     19163     19166     19168     19165     19163     19166     19169
     19166     19169     19171     19172     19166     19169     19171     19173
     19167     19166     19169     19170     19167     19166     19169     19171
     19168     19166     19169     19170     19168     19166     19169     19171
     19169     19171     19173     19174     19169     19171     19173     19175
     19169     19171     19173     19176     19170     19169     19171     19172
     19170     19169     19171     19173     19171     19173     19176     19177
     19171     19173     19176     19178     19172     19171     19173     19174
     19172     19171     19173     19175     19172     19171     19173     19176
     19173     19176     19178     19179     19173     19176     19178     19180
     19174     19173     19176     19177     19174     19173     19176     19178
     19175     19173     19176     19177     19175     19173     19176     19178
     19176     19178     19180     19181     19176     19178     19180     19182
     19176     19178     19180     19183     19177     19176     19178     19179
     19177     19176     19178     19180     19178     19180     19183     19184
     19178     19180     19183     19185     19179     19178     19180     19181
     19179     19178     19180     19182     19179     19178     19180     19183
     19180     19183     19185     19186     19180     19183     19185     19187
     19181     19180     19183     19184     19181     19180     19183     19185
     19182     19180     19183     19184     19182     19180     19183     19185
     19183     19185     19187     19188     19183     19185     19187     19189
     19183     19185     19187     19190     19184     19183     19185     19186
     19184     19183     19185     19187     19185     19187     19190     19191
     19185     19187     19190     19192     19186     19185     19187     19188
     19186     19185     19187     19189     19186     19185     19187     19190
     19187     19190     19192     19193     19187     19190     19192     19194
     19188     19187     19190     19191     19188     19187     19190     19192
     19189     19187     19190     19191     19189     19187     19190     19192
     19190     19192     19194     19195     19190     19192     19194     19196
     19190     19192     19194     19197     19191     19190     19192     19193
     19191     19190     19192     19194     19192     19194     19197     19198
     19192     19194     19197     19199     19192     19194     19197     19200
     19193     19192     19194     19195     19193     19192     19194     19196
     19193     19192     19194     19197     19194     19197     19200     19201
     19194     19197     19200     19202     19194     19197     19200     19203
     19195     19194     19197     19198     19195     19194     19197     19199
     19195     19194     19197     19200     19196     19194     19197     19198
     19196     19194     19197     19199     19196     19194     19197     19200
     19197     19200     19203     19204     19197     19200     19203     19205
     19197     19200     19203     19206     19198     19197     19200     19201
     19198     19197     19200     19202     19198     19197     19200     19203
     19199     19197     19200     19201     19199     19197     19200     19202
     19199     19197     19200     19203     19200     19203     19206     19207
     19200     19203     19206     19208     19200     19203     19206     19209
     19201     19200     19203     19204     19201     19200     19203     19205
     19201     19200     19203     19206     19202     19200     19203     19204
     19202     19200     19203     19205     19202     19200     19203     19206
     19204     19203     19206     19207     19204     19203     19206     19208
     19204     19203     19206     19209     19205     19203     19206     19207
     19205     19203     19206     19208     19205     19203     19206     19209
     19210     19213     19216     19217     19210     19213     19216     19218
     19210     19213     19216     19219     19211     19210     19213     19214
     19211     19210     19213     19215     19211     19210     19213     19216
     19212     19210     19213     19214     19212     19210     19213     19215
     19212     19210     19213     19216     19213     19216     19219     19220
     19213     19216     19219     19221     19213     19216     19219     19222
     19214     19213     19216     19217     19214     19213     19216     19218
     19214     19213     19216     19219     19215     19213     19216     19217
     19215     19213     19216     19218     19215     19213     19216     19219
     19216     19219     19222     19223     19216     19219     19222     19224
     19216     19219     19222     19225     19217     19216     19219     19220
     19217     19216     19219     19221     19217     19216     19219     19222
     19218     19216     19219     19220     19218     19216     19219     19221
     19218     19216     19219     19222     19219     19222     19225     19226
     19219     19222     19225     19227     19219     19222     19225     19228
     19220     19219     19222     19223     19220     19219     19222     19224
     19220     19219     19222     19225     19221     19219     19222     19223
     19221     19219     19222     19224     19221     19219     19222     19225
     19222     19225     19228     19229     19222     19225     19228     19230
     19222     19225     19228     19231     19223     19222     19225     19226
     19223     19222     19225     19227     19223     19222     19225     19228
     19224     19222     19225     19226     19224     19222     19225     19227
     19224     19222     19225     19228     19225     19228     19231     19232
     19225     19228     19231     19233     19225     19228     19231     19234
     19226     19225     19228     19229     19226     19225     19228     19230
     19226     19225     19228     19231     19227     19225     19228     19229
     19227     19225     19228     19230     19227     19225     19228     19231
     19228     19231     19234     19235     19228     19231     19234     19236
     19228     19231     19234     19237     19229     19228     19231     19232
     19229     19228     19231     19233     19229     19228     19231     19234
     19230     19228     19231     19232     19230     19228     19231     19233
     19230     19228     19231     19234     19231     19234     19237     19238
     19231     19234     19237     19239     19231     19234     19237     19240
     19232     19231     19234     19235     19232     19231     19234     19236
     19232     19231     19234     19237     19233     19231     19234     19235
     19233     19231     19234     19236     19233     19231     19234     19237
     19234     19237     19240     19241     19234     19237     19240     19242
     19234     19237     19240     19243     19235     19234     19237     19238
     19235     19234     19237     19239     19235     19234     19237     19240
     19236     19234     19237     19238     19236     19234     19237     19239
     19236     19234     19237     19240     19237     19240     19243     19244
     19237     19240     19243     19245     19237     19240     19243     19246
     19238     19237     19240     19241     19238     19237     19240     19242
     19238     19237     19240     19243     19239     19237     19240     19241
     19239     19237     19240     19242     19239     19237     19240     19243
     19240     19243     19246     19247     19240     19243     19246     19248
     19240     19243     19246     19249     19241     19240     19243     19244
     19241     19240     19243     19245     19241     19240     19243     19246
     19242     19240     19243     19244     19242     19240     19243     19245
     19242     19240     19243     19246     19243     19246     19249     19250
     19243     19246     19249     19251     19243     19246     19249     19252
     19244     19243     19246     19247     19244     19243     19246     19248
     19244     19243     19246     19249     19245     19243     19246     19247
     19245     19243     19246     19248     19245     19243     19246     19249
     19246     19249     19252     19253     19246     19249     19252     19254
     19246     19249     19252     19255     19247     19246     19249     19250
     19247     19246     19249     19251     19247     19246     19249     19252
     19248     19246     19249     19250     19248     19246     19249     19251
     19248     19246     19249     19252     19249     19252     19255     19256
     19249     19252     19255     19257     19249     19252     19255     19258
     19250     19249     19252     19253     19250     19249     19252     19254
     19250     19249     19252     19255     19251     19249     19252     19253
     19251     19249     19252     19254     19251     19249     19252     19255
     19253     19252     19255     19256     19253     19252     19255     19257
     19253     19252     19255     19258     19254     19252     19255     19256
     19254     19252     19255     19257     19254     19252     19255     19258
     19259     19263     19265     19266     19259     19263     19265     19267
     19259     19263     19268     19269     19259     19263     19268     19270
     19259     19263     19268     19274     19260     19259     19263     19264
     19260     19259     19263     19265     19260     19259     19263     19268
     19261     19259     19263     19264     19261     19259     19263     19265
     19261     19259     19263     19268     19262     19259     19263     19264
     19262     19259     19263     19265     19262     19259     19263     19268
     19263     19268     19274     19271     19264     19263     19265     19266
     19264     19263     19265     19267     19264     19263     19268     19269
     19264     19263     19268     19270     19264     19263     19268     19274
     19265     19263     19268     19269     19265     19263     19268     19270
     19265     19263     19268     19274     19266     19265     19263     19268
     19267     19265     19263     19268     19268     19274     19271     19272
     19268     19274     19271     19273     19268     19274     19271     19275
     19269     19268     19274     19271     19270     19268     19274     19271
     19271     19275     19276     19277     19271     19275     19276     19278
     19271     19275     19276     19279     19272     19271     19275     19276
     19273     19271     19275     19276     19274     19271     19275     19276
     19275     19276     19279     19280     19275     19276     19279     19281
     19275     19276     19279     19287     19276     19279     19281     19282
     19276     19279     19287     19288     19276     19279     19287     19289
     19276     19279     19287     19290     19277     19276     19279     19280
     19277     19276     19279     19281     19277     19276     19279     19287
     19278     19276     19279     19280     19278     19276     19279     19281
     19278     19276     19279     19287     19279     19281     19282     19283
     19279     19281     19282     19284     19279     19287     19290     19291
     19280     19279     19281     19282     19280     19279     19287     19288
     19280     19279     19287     19289     19280     19279     19287     19290
     19281     19279     19287     19288     19281     19279     19287     19289
     19281     19279     19287     19290     19281     19282     19284     19285
     19281     19282     19284     19286     19281     19282     19284     19296
     19282     19281     19279     19287     19282     19284     19296     19297
     19282     19284     19296     19298     19282     19284     19296     19299
     19283     19282     19284     19285     19283     19282     19284     19286
     19283     19282     19284     19296     19284     19296     19299     19300
     19284     19296     19299     19301     19284     19296     19299     19302
     19285     19284     19296     19297     19285     19284     19296     19298
     19285     19284     19296     19299     19286     19284     19296     19297
     19286     19284     19296     19298     19286     19284     19296     19299
     19287     19290     19291     19292     19287     19290     19291     19293
     19288     19287     19290     19291     19289     19287     19290     19291
     19290     19291     19293     19294     19290     19291     19293     19295
     19290     19291     19293     19343     19291     19293     19343     19344
     19291     19293     19343     19345     19291     19293     19343     19346
     19292     19291     19293     19294     19292     19291     19293     19295
     19292     19291     19293     19343     19293     19343     19346     19347
     19293     19343     19346     19348     19293     19343     19346     19349
     19294     19293     19343     19344     19294     19293     19343     19345
     19294     19293     19343     19346     19295     19293     19343     19344
     19295     19293     19343     19345     19295     19293     19343     19346
     19296     19299     19302     19303     19296     19299     19302     19304
     19297     19296     19299     19300     19297     19296     19299     19301
     19297     19296     19299     19302     19298     19296     19299     19300
     19298     19296     19299     19301     19298     19296     19299     19302
     19299     19302     19304     19305     19299     19302     19304     19306
     19300     19299     19302     19303     19300     19299     19302     19304
     19301     19299     19302     19303     19301     19299     19302     19304
     19302     19304     19306     19307     19302     19304     19306     19308
     19302     19304     19306     19309     19303     19302     19304     19305
     19303     19302     19304     19306     19304     19306     19309     19310
     19304     19306     19309     19311     19305     19304     19306     19307
     19305     19304     19306     19308     19305     19304     19306     19309
     19306     19309     19311     19312     19306     19309     19311     19313
     19307     19306     19309     19310     19307     19306     19309     19311
     19308     19306     19309     19310     19308     19306     19309     19311
     19309     19311     19313     19314     19309     19311     19313     19315
     19309     19311     19313     19316     19310     19309     19311     19312
     19310     19309     19311     19313     19311     19313     19316     19317
     19311     19313     19316     19318     19312     19311     19313     19314
     19312     19311     19313     19315     19312     19311     19313     19316
     19313     19316     19318     19319     19313     19316     19318     19320
     19314     19313     19316     19317     19314     19313     19316     19318
     19315     19313     19316     19317     19315     19313     19316     19318
     19316     19318     19320     19321     19316     19318     19320     19322
     19316     19318     19320     19323     19317     19316     19318     19319
     19317     19316     19318     19320     19318     19320     19323     19324
     19318     19320     19323     19325     19319     19318     19320     19321
     19319     19318     19320     19322     19319     19318     19320     19323
     19320     19323     19325     19326     19320     19323     19325     19327
     19321     19320     19323     19324     19321     19320     19323     19325
     19322     19320     19323     19324     19322     19320     19323     19325
     19323     19325     19327     19328     19323     19325     19327     19329
     19323     19325     19327     19330     19324     19323     19325     19326
     19324     19323     19325     19327     19325     19327     19330     19331
     19325     19327     19330     19332     19325     19327     19330     19333
     19326     19325     19327     19328     19326     19325     19327     19329
     19326     19325     19327     19330     19327     19330     19333     19334
     19327     19330     19333     19335     19327     19330     19333     19336
     19328     19327     19330     19331     19328     19327     19330     19332
     19328     19327     19330     19333     19329     19327     19330     19331
     19329     19327     19330     19332     19329     19327     19330     19333
     19330     19333     19336     19337     19330     19333     19336     19338
     19330     19333     19336     19339     19331     19330     19333     19334
     19331     19330     19333     19335     19331     19330     19333     19336
     19332     19330     19333     19334     19332     19330     19333     19335
     19332     19330     19333     19336     19333     19336     19339     19340
     19333     19336     19339     19341     19333     19336     19339     19342
     19334     19333     19336     19337     19334     19333     19336     19338
     19334     19333     19336     19339     19335     19333     19336     19337
     19335     19333     19336     19338     19335     19333     19336     19339
     19337     19336     19339     19340     19337     19336     19339     19341
     19337     19336     19339     19342     19338     19336     19339     19340
     19338     19336     19339     19341     19338     19336     19339     19342
     19343     19346     19349     19350     19343     19346     19349     19351
     19343     19346     19349     19352     19344     19343     19346     19347
     19344     19343     19346     19348     19344     19343     19346     19349
     19345     19343     19346     19347     19345     19343     19346     19348
     19345     19343     19346     19349     19346     19349     19352     19353
     19346     19349     19352     19354     19346     19349     19352     19355
     19347     19346     19349     19350     19347     19346     19349     19351
     19347     19346     19349     19352     19348     19346     19349     19350
     19348     19346     19349     19351     19348     19346     19349     19352
     19349     19352     19355     19356     19349     19352     19355     19357
     19349     19352     19355     19358     19350     19349     19352     19353
     19350     19349     19352     19354     19350     19349     19352     19355
     19351     19349     19352     19353     19351     19349     19352     19354
     19351     19349     19352     19355     19352     19355     19358     19359
     19352     19355     19358     19360     19352     19355     19358     19361
     19353     19352     19355     19356     19353     19352     19355     19357
     19353     19352     19355     19358     19354     19352     19355     19356
     19354     19352     19355     19357     19354     19352     19355     19358
     19355     19358     19361     19362     19355     19358     19361     19363
     19355     19358     19361     19364     19356     19355     19358     19359
     19356     19355     19358     19360     19356     19355     19358     19361
     19357     19355     19358     19359     19357     19355     19358     19360
     19357     19355     19358     19361     19358     19361     19364     19365
     19358     19361     19364     19366     19358     19361     19364     19367
     19359     19358     19361     19362     19359     19358     19361     19363
     19359     19358     19361     19364     19360     19358     19361     19362
     19360     19358     19361     19363     19360     19358     19361     19364
     19361     19364     19367     19368     19361     19364     19367     19369
     19361     19364     19367     19370     19362     19361     19364     19365
     19362     19361     19364     19366     19362     19361     19364     19367
     19363     19361     19364     19365     19363     19361     19364     19366
     19363     19361     19364     19367     19364     19367     19370     19371
     19364     19367     19370     19372     19364     19367     19370     19373
     19365     19364     19367     19368     19365     19364     19367     19369
     19365     19364     19367     19370     19366     19364     19367     19368
     19366     19364     19367     19369     19366     19364     19367     19370
     19367     19370     19373     19374     19367     19370     19373     19375
     19367     19370     19373     19376     19368     19367     19370     19371
     19368     19367     19370     19372     19368     19367     19370     19373
     19369     19367     19370     19371     19369     19367     19370     19372
     19369     19367     19370     19373     19370     19373     19376     19377
     19370     19373     19376     19378     19370     19373     19376     19379
     19371     19370     19373     19374     19371     19370     19373     19375
     19371     19370     19373     19376     19372     19370     19373     19374
     19372     19370     19373     19375     19372     19370     19373     19376
     19373     19376     19379     19380     19373     19376     19379     19381
     19373     19376     19379     19382     19374     19373     19376     19377
     19374     19373     19376     19378     19374     19373     19376     19379
     19375     19373     19376     19377     19375     19373     19376     19378
     19375     19373     19376     19379     19376     19379     19382     19383
     19376     19379     19382     19384     19376     19379     19382     19385
     19377     19376     19379     19380     19377     19376     19379     19381
     19377     19376     19379     19382     19378     19376     19379     19380
     19378     19376     19379     19381     19378     19376     19379     19382
     19379     19382     19385     19386     19379     19382     19385     19387
     19379     19382     19385     19388     19380     19379     19382     19383
     19380     19379     19382     19384     19380     19379     19382     19385
     19381     19379     19382     19383     19381     19379     19382     19384
     19381     19379     19382     19385     19382     19385     19388     19389
     19382     19385     19388     19390     19382     19385     19388     19391
     19383     19382     19385     19386     19383     19382     19385     19387
     19383     19382     19385     19388     19384     19382     19385     19386
     19384     19382     19385     19387     19384     19382     19385     19388
     19386     19385     19388     19389     19386     19385     19388     19390
     19386     19385     19388     19391     19387     19385     19388     19389
     19387     19385     19388     19390     19387     19385     19388     19391
     19392     19405     19408     19409     19392     19405     19408     19410
     19392     19405     19408     19415     19393     19392     19397     19398
     19393     19392     19397     19399     19393     19392     19397     19400
     19393     19392     19401     19402     19393     19392     19401     19403
     19393     19392     19401     19404     19393     19392     19405     19406
     19393     19392     19405     19407     19393     19392     19405     19408
     19394     19393     19392     19397     19394     19393     19392     19401
     19394     19393     19392     19405     19395     19393     19392     19397
     19395     19393     19392     19401     19395     19393     19392     19405
     19396     19393     19392     19397     19396     19393     19392     19401
     19396     19393     19392     19405     19397     19392     19401     19402
     19397     19392     19401     19403     19397     19392     19401     19404
     19397     19392     19405     19406     19397     19392     19405     19407
     19397     19392     19405     19408     19398     19397     19392     19401
     19398     19397     19392     19405     19399     19397     19392     19401
     19399     19397     19392     19405     19400     19397     19392     19401
     19400     19397     19392     19405     19401     19392     19405     19406
     19401     19392     19405     19407     19401     19392     19405     19408
     19402     19401     19392     19405     19403     19401     19392     19405
     19404     19401     19392     19405     19405     19408     19415     19411
     19406     19405     19408     19409     19406     19405     19408     19410
     19406     19405     19408     19415     19407     19405     19408     19409
     19407     19405     19408     19410     19407     19405     19408     19415
     19408     19415     19411     19412     19408     19415     19411     19413
     19408     19415     19411     19414     19409     19408     19415     19411
     19410     19408     19415     19411     19411     19414     19416     19417
     19411     19414     19416     19418     19411     19414     19416     19421
     19412     19411     19414     19416     19413     19411     19414     19416
     19414     19416     19421     19419     19414     19416     19421     19422
     19414     19416     19421     19423     19415     19411     19414     19416
     19416     19421     19419     19420     19416     19421     19419     19471
     19416     19421     19423     19424     19416     19421     19423     19425
     19416     19421     19423     19427     19417     19416     19421     19419
     19417     19416     19421     19422     19417     19416     19421     19423
     19418     19416     19421     19419     19418     19416     19421     19422
     19418     19416     19421     19423     19419     19421     19423     19424
     19419     19421     19423     19425     19419     19421     19423     19427
     19419     19471     19473     19474     19419     19471     19473     19475
     19419     19471     19473     19476     19420     19419     19421     19422
     19420     19419     19421     19423     19420     19419     19471     19472
     19420     19419     19471     19473     19421     19419     19471     19472
     19421     19419     19471     19473     19421     19423     19425     19426
     19421     19423     19427     19428     19421     19423     19427     19429
     19422     19421     19419     19471     19422     19421     19423     19424
     19422     19421     19423     19425     19422     19421     19423     19427
     19423     19421     19419     19471     19423     19427     19429     19430
     19423     19427     19429     19431     19424     19423     19425     19426
     19424     19423     19427     19428     19424     19423     19427     19429
     19425     19423     19427     19428     19425     19423     19427     19429
     19426     19425     19423     19427     19427     19429     19431     19432
     19427     19429     19431     19433     19427     19429     19431     19434
     19428     19427     19429     19430     19428     19427     19429     19431
     19429     19431     19434     19435     19429     19431     19434     19436
     19429     19431     19434     19437     19430     19429     19431     19432
     19430     19429     19431     19433     19430     19429     19431     19434
     19431     19434     19437     19438     19431     19434     19437     19439
     19431     19434     19437     19440     19432     19431     19434     19435
     19432     19431     19434     19436     19432     19431     19434     19437
     19433     19431     19434     19435     19433     19431     19434     19436
     19433     19431     19434     19437     19434     19437     19440     19441
     19434     19437     19440     19442     19434     19437     19440     19443
     19435     19434     19437     19438     19435     19434     19437     19439
     19435     19434     19437     19440     19436     19434     19437     19438
     19436     19434     19437     19439     19436     19434     19437     19440
     19437     19440     19443     19444     19437     19440     19443     19445
     19437     19440     19443     19446     19438     19437     19440     19441
     19438     19437     19440     19442     19438     19437     19440     19443
     19439     19437     19440     19441     19439     19437     19440     19442
     19439     19437     19440     19443     19440     19443     19446     19447
     19440     19443     19446     19448     19440     19443     19446     19449
     19441     19440     19443     19444     19441     19440     19443     19445
     19441     19440     19443     19446     19442     19440     19443     19444
     19442     19440     19443     19445     19442     19440     19443     19446
     19443     19446     19449     19450     19443     19446     19449     19451
     19443     19446     19449     19452     19444     19443     19446     19447
     19444     19443     19446     19448     19444     19443     19446     19449
     19445     19443     19446     19447     19445     19443     19446     19448
     19445     19443     19446     19449     19446     19449     19452     19453
     19446     19449     19452     19454     19446     19449     19452     19455
     19447     19446     19449     19450     19447     19446     19449     19451
     19447     19446     19449     19452     19448     19446     19449     19450
     19448     19446     19449     19451     19448     19446     19449     19452
     19449     19452     19455     19456     19449     19452     19455     19457
     19449     19452     19455     19458     19450     19449     19452     19453
     19450     19449     19452     19454     19450     19449     19452     19455
     19451     19449     19452     19453     19451     19449     19452     19454
     19451     19449     19452     19455     19452     19455     19458     19459
     19452     19455     19458     19460     19452     19455     19458     19461
     19453     19452     19455     19456     19453     19452     19455     19457
     19453     19452     19455     19458     19454     19452     19455     19456
     19454     19452     19455     19457     19454     19452     19455     19458
     19455     19458     19461     19462     19455     19458     19461     19463
     19455     19458     19461     19464     19456     19455     19458     19459
     19456     19455     19458     19460     19456     19455     19458     19461
     19457     19455     19458     19459     19457     19455     19458     19460
     19457     19455     19458     19461     19458     19461     19464     19465
     19458     19461     19464     19466     19458     19461     19464     19467
     19459     19458     19461     19462     19459     19458     19461     19463
     19459     19458     19461     19464     19460     19458     19461     19462
     19460     19458     19461     19463     19460     19458     19461     19464
     19461     19464     19467     19468     19461     19464     19467     19469
     19461     19464     19467     19470     19462     19461     19464     19465
     19462     19461     19464     19466     19462     19461     19464     19467
     19463     19461     19464     19465     19463     19461     19464     19466
     19463     19461     19464     19467     19465     19464     19467     19468
     19465     19464     19467     19469     19465     19464     19467     19470
     19466     19464     19467     19468     19466     19464     19467     19469
     19466     19464     19467     19470     19471     19473     19476     19477
     19471     19473     19476     19478     19471     19473     19476     19479
     19472     19471     19473     19474     19472     19471     19473     19475
     19472     19471     19473     19476     19473     19476     19479     19480
     19473     19476     19479     19481     19473     19476     19479     19482
     19474     19473     19476     19477     19474     19473     19476     19478
     19474     19473     19476     19479     19475     19473     19476     19477
     19475     19473     19476     19478     19475     19473     19476     19479
     19476     19479     19482     19483     19476     19479     19482     19484
     19476     19479     19482     19485     19477     19476     19479     19480
     19477     19476     19479     19481     19477     19476     19479     19482
     19478     19476     19479     19480     19478     19476     19479     19481
     19478     19476     19479     19482     19479     19482     19485     19486
     19479     19482     19485     19487     19479     19482     19485     19488
     19480     19479     19482     19483     19480     19479     19482     19484
     19480     19479     19482     19485     19481     19479     19482     19483
     19481     19479     19482     19484     19481     19479     19482     19485
     19482     19485     19488     19489     19482     19485     19488     19490
     19482     19485     19488     19491     19483     19482     19485     19486
     19483     19482     19485     19487     19483     19482     19485     19488
     19484     19482     19485     19486     19484     19482     19485     19487
     19484     19482     19485     19488     19485     19488     19491     19492
     19485     19488     19491     19493     19485     19488     19491     19494
     19486     19485     19488     19489     19486     19485     19488     19490
     19486     19485     19488     19491     19487     19485     19488     19489
     19487     19485     19488     19490     19487     19485     19488     19491
     19488     19491     19494     19495     19488     19491     19494     19496
     19489     19488     19491     19492     19489     19488     19491     19493
     19489     19488     19491     19494     19490     19488     19491     19492
     19490     19488     19491     19493     19490     19488     19491     19494
     19491     19494     19496     19497     19491     19494     19496     19498
     19492     19491     19494     19495     19492     19491     19494     19496
     19493     19491     19494     19495     19493     19491     19494     19496
     19494     19496     19498     19499     19494     19496     19498     19500
     19494     19496     19498     19501     19495     19494     19496     19497
     19495     19494     19496     19498     19496     19498     19501     19502
     19496     19498     19501     19503     19496     19498     19501     19504
     19497     19496     19498     19499     19497     19496     19498     19500
     19497     19496     19498     19501     19498     19501     19504     19505
     19498     19501     19504     19506     19498     19501     19504     19507
     19499     19498     19501     19502     19499     19498     19501     19503
     19499     19498     19501     19504     19500     19498     19501     19502
     19500     19498     19501     19503     19500     19498     19501     19504
     19501     19504     19507     19508     19501     19504     19507     19509
     19501     19504     19507     19510     19502     19501     19504     19505
     19502     19501     19504     19506     19502     19501     19504     19507
     19503     19501     19504     19505     19503     19501     19504     19506
     19503     19501     19504     19507     19504     19507     19510     19511
     19504     19507     19510     19512     19504     19507     19510     19513
     19505     19504     19507     19508     19505     19504     19507     19509
     19505     19504     19507     19510     19506     19504     19507     19508
     19506     19504     19507     19509     19506     19504     19507     19510
     19507     19510     19513     19514     19507     19510     19513     19515
     19507     19510     19513     19516     19508     19507     19510     19511
     19508     19507     19510     19512     19508     19507     19510     19513
     19509     19507     19510     19511     19509     19507     19510     19512
     19509     19507     19510     19513     19510     19513     19516     19517
     19510     19513     19516     19518     19510     19513     19516     19519
     19511     19510     19513     19514     19511     19510     19513     19515
     19511     19510     19513     19516     19512     19510     19513     19514
     19512     19510     19513     19515     19512     19510     19513     19516
     19513     19516     19519     19520     19513     19516     19519     19521
     19513     19516     19519     19522     19514     19513     19516     19517
     19514     19513     19516     19518     19514     19513     19516     19519
     19515     19513     19516     19517     19515     19513     19516     19518
     19515     19513     19516     19519     19517     19516     19519     19520
     19517     19516     19519     19521     19517     19516     19519     19522
     19518     19516     19519     19520     19518     19516     19519     19521
     19518     19516     19519     19522     19523     19527     19529     19530
     19523     19527     19529     19531     19523     19527     19532     19533
     19523     19527     19532     19534     19523     19527     19532     19538
     19524     19523     19527     19528     19524     19523     19527     19529
     19524     19523     19527     19532     19525     19523     19527     19528
     19525     19523     19527     19529     19525     19523     19527     19532
     19526     19523     19527     19528     19526     19523     19527     19529
     19526     19523     19527     19532     19527     19532     19538     19535
     19528     19527     19529     19530     19528     19527     19529     19531
     19528     19527     19532     19533     19528     19527     19532     19534
     19528     19527     19532     19538     19529     19527     19532     19533
     19529     19527     19532     19534     19529     19527     19532     19538
     19530     19529     19527     19532     19531     19529     19527     19532
     19532     19538     19535     19536     19532     19538     19535     19537
     19532     19538     19535     19539     19533     19532     19538     19535
     19534     19532     19538     19535     19535     19539     19540     19541
     19535     19539     19540     19542     19535     19539     19540     19543
     19536     19535     19539     19540     19537     19535     19539     19540
     19538     19535     19539     19540     19539     19540     19543     19544
     19539     19540     19543     19545     19539     19540     19543     19551
     19540     19543     19545     19546     19540     19543     19551     19552
     19540     19543     19551     19553     19540     19543     19551     19554
     19541     19540     19543     19544     19541     19540     19543     19545
     19541     19540     19543     19551     19542     19540     19543     19544
     19542     19540     19543     19545     19542     19540     19543     19551
     19543     19545     19546     19547     19543     19545     19546     19548
     19543     19551     19554     19555     19544     19543     19545     19546
     19544     19543     19551     19552     19544     19543     19551     19553
     19544     19543     19551     19554     19545     19543     19551     19552
     19545     19543     19551     19553     19545     19543     19551     19554
     19545     19546     19548     19549     19545     19546     19548     19550
     19545     19546     19548     19560     19546     19545     19543     19551
     19546     19548     19560     19561     19546     19548     19560     19562
     19546     19548     19560     19563     19547     19546     19548     19549
     19547     19546     19548     19550     19547     19546     19548     19560
     19548     19560     19563     19564     19548     19560     19563     19565
     19548     19560     19563     19566     19549     19548     19560     19561
     19549     19548     19560     19562     19549     19548     19560     19563
     19550     19548     19560     19561     19550     19548     19560     19562
     19550     19548     19560     19563     19551     19554     19555     19556
     19551     19554     19555     19557     19552     19551     19554     19555
     19553     19551     19554     19555     19554     19555     19557     19558
     19554     19555     19557     19559     19554     19555     19557     19607
     19555     19557     19607     19608     19555     19557     19607     19609
     19555     19557     19607     19610     19556     19555     19557     19558
     19556     19555     19557     19559     19556     19555     19557     19607
     19557     19607     19610     19611     19557     19607     19610     19612
     19557     19607     19610     19613     19558     19557     19607     19608
     19558     19557     19607     19609     19558     19557     19607     19610
     19559     19557     19607     19608     19559     19557     19607     19609
     19559     19557     19607     19610     19560     19563     19566     19567
     19560     19563     19566     19568     19561     19560     19563     19564
     19561     19560     19563     19565     19561     19560     19563     19566
     19562     19560     19563     19564     19562     19560     19563     19565
     19562     19560     19563     19566     19563     19566     19568     19569
     19563     19566     19568     19570     19564     19563     19566     19567
     19564     19563     19566     19568     19565     19563     19566     19567
     19565     19563     19566     19568     19566     19568     19570     19571
     19566     19568     19570     19572     19566     19568     19570     19573
     19567     19566     19568     19569     19567     19566     19568     19570
     19568     19570     19573     19574     19568     19570     19573     19575
     19569     19568     19570     19571     19569     19568     19570     19572
     19569     19568     19570     19573     19570     19573     19575     19576
     19570     19573     19575     19577     19571     19570     19573     19574
     19571     19570     19573     19575     19572     19570     19573     19574
     19572     19570     19573     19575     19573     19575     19577     19578
     19573     19575     19577     19579     19573     19575     19577     19580
     19574     19573     19575     19576     19574     19573     19575     19577
     19575     19577     19580     19581     19575     19577     19580     19582
     19576     19575     19577     19578     19576     19575     19577     19579
     19576     19575     19577     19580     19577     19580     19582     19583
     19577     19580     19582     19584     19578     19577     19580     19581
     19578     19577     19580     19582     19579     19577     19580     19581
     19579     19577     19580     19582     19580     19582     19584     19585
     19580     19582     19584     19586     19580     19582     19584     19587
     19581     19580     19582     19583     19581     19580     19582     19584
     19582     19584     19587     19588     19582     19584     19587     19589
     19583     19582     19584     19585     19583     19582     19584     19586
     19583     19582     19584     19587     19584     19587     19589     19590
     19584     19587     19589     19591     19585     19584     19587     19588
     19585     19584     19587     19589     19586     19584     19587     19588
     19586     19584     19587     19589     19587     19589     19591     19592
     19587     19589     19591     19593     19587     19589     19591     19594
     19588     19587     19589     19590     19588     19587     19589     19591
     19589     19591     19594     19595     19589     19591     19594     19596
     19589     19591     19594     19597     19590     19589     19591     19592
     19590     19589     19591     19593     19590     19589     19591     19594
     19591     19594     19597     19598     19591     19594     19597     19599
     19591     19594     19597     19600     19592     19591     19594     19595
     19592     19591     19594     19596     19592     19591     19594     19597
     19593     19591     19594     19595     19593     19591     19594     19596
     19593     19591     19594     19597     19594     19597     19600     19601
     19594     19597     19600     19602     19594     19597     19600     19603
     19595     19594     19597     19598     19595     19594     19597     19599
     19595     19594     19597     19600     19596     19594     19597     19598
     19596     19594     19597     19599     19596     19594     19597     19600
     19597     19600     19603     19604     19597     19600     19603     19605
     19597     19600     19603     19606     19598     19597     19600     19601
     19598     19597     19600     19602     19598     19597     19600     19603
     19599     19597     19600     19601     19599     19597     19600     19602
     19599     19597     19600     19603     19601     19600     19603     19604
     19601     19600     19603     19605     19601     19600     19603     19606
     19602     19600     19603     19604     19602     19600     19603     19605
     19602     19600     19603     19606     19607     19610     19613     19614
     19607     19610     19613     19615     19607     19610     19613     19616
     19608     19607     19610     19611     19608     19607     19610     19612
     19608     19607     19610     19613     19609     19607     19610     19611
     19609     19607     19610     19612     19609     19607     19610     19613
     19610     19613     19616     19617     19610     19613     19616     19618
     19610     19613     19616     19619     19611     19610     19613     19614
     19611     19610     19613     19615     19611     19610     19613     19616
     19612     19610     19613     19614     19612     19610     19613     19615
     19612     19610     19613     19616     19613     19616     19619     19620
     19613     19616     19619     19621     19613     19616     19619     19622
     19614     19613     19616     19617     19614     19613     19616     19618
     19614     19613     19616     19619     19615     19613     19616     19617
     19615     19613     19616     19618     19615     19613     19616     19619
     19616     19619     19622     19623     19616     19619     19622     19624
     19616     19619     19622     19625     19617     19616     19619     19620
     19617     19616     19619     19621     19617     19616     19619     19622
     19618     19616     19619     19620     19618     19616     19619     19621
     19618     19616     19619     19622     19619     19622     19625     19626
     19619     19622     19625     19627     19619     19622     19625     19628
     19620     19619     19622     19623     19620     19619     19622     19624
     19620     19619     19622     19625     19621     19619     19622     19623
     19621     19619     19622     19624     19621     19619     19622     19625
     19622     19625     19628     19629     19622     19625     19628     19630
     19622     19625     19628     19631     19623     19622     19625     19626
     19623     19622     19625     19627     19623     19622     19625     19628
     19624     19622     19625     19626     19624     19622     19625     19627
     19624     19622     19625     19628     19625     19628     19631     19632
     19625     19628     19631     19633     19625     19628     19631     19634
     19626     19625     19628     19629     19626     19625     19628     19630
     19626     19625     19628     19631     19627     19625     19628     19629
     19627     19625     19628     19630     19627     19625     19628     19631
     19628     19631     19634     19635     19628     19631     19634     19636
     19628     19631     19634     19637     19629     19628     19631     19632
     19629     19628     19631     19633     19629     19628     19631     19634
     19630     19628     19631     19632     19630     19628     19631     19633
     19630     19628     19631     19634     19631     19634     19637     19638
     19631     19634     19637     19639     19631     19634     19637     19640
     19632     19631     19634     19635     19632     19631     19634     19636
     19632     19631     19634     19637     19633     19631     19634     19635
     19633     19631     19634     19636     19633     19631     19634     19637
     19634     19637     19640     19641     19634     19637     19640     19642
     19634     19637     19640     19643     19635     19634     19637     19638
     19635     19634     19637     19639     19635     19634     19637     19640
     19636     19634     19637     19638     19636     19634     19637     19639
     19636     19634     19637     19640     19637     19640     19643     19644
     19637     19640     19643     19645     19637     19640     19643     19646
     19638     19637     19640     19641     19638     19637     19640     19642
     19638     19637     19640     19643     19639     19637     19640     19641
     19639     19637     19640     19642     19639     19637     19640     19643
     19640     19643     19646     19647     19640     19643     19646     19648
     19640     19643     19646     19649     19641     19640     19643     19644
     19641     19640     19643     19645     19641     19640     19643     19646
     19642     19640     19643     19644     19642     19640     19643     19645
     19642     19640     19643     19646     19643     19646     19649     19650
     19643     19646     19649     19651     19643     19646     19649     19652
     19644     19643     19646     19647     19644     19643     19646     19648
     19644     19643     19646     19649     19645     19643     19646     19647
     19645     19643     19646     19648     19645     19643     19646     19649
     19646     19649     19652     19653     19646     19649     19652     19654
     19646     19649     19652     19655     19647     19646     19649     19650
     19647     19646     19649     19651     19647     19646     19649     19652
     19648     19646     19649     19650     19648     19646     19649     19651
     19648     19646     19649     19652     19650     19649     19652     19653
     19650     19649     19652     19654     19650     19649     19652     19655
     19651     19649     19652     19653     19651     19649     19652     19654
     19651     19649     19652     19655     19656     19660     19663     19664
     19656     19660     19663     19665     19656     19660     19663     19669
     19657     19656     19660     19661     19657     19656     19660     19662
     19657     19656     19660     19663     19658     19656     19660     19661
     19658     19656     19660     19662     19658     19656     19660     19663
     19659     19656     19660     19661     19659     19656     19660     19662
     19659     19656     19660     19663     19660     19663     19669     19666
     19661     19660     19663     19664     19661     19660     19663     19665
     19661     19660     19663     19669     19662     19660     19663     19664
     19662     19660     19663     19665     19662     19660     19663     19669
     19663     19669     19666     19667     19663     19669     19666     19668
     19663     19669     19666     19670     19664     19663     19669     19666
     19665     19663     19669     19666     19666     19670     19671     19672
     19666     19670     19671     19673     19666     19670     19671     19674
     19667     19666     19670     19671     19668     19666     19670     19671
     19669     19666     19670     19671     19670     19671     19674     19675
     19670     19671     19674     19676     19670     19671     19674     19682
     19671     19674     19676     19677     19671     19674     19682     19683
     19671     19674     19682     19684     19671     19674     19682     19685
     19672     19671     19674     19675     19672     19671     19674     19676
     19672     19671     19674     19682     19673     19671     19674     19675
     19673     19671     19674     19676     19673     19671     19674     19682
     19674     19676     19677     19678     19674     19676     19677     19679
     19674     19682     19685     19686     19675     19674     19676     19677
     19675     19674     19682     19683     19675     19674     19682     19684
     19675     19674     19682     19685     19676     19674     19682     19683
     19676     19674     19682     19684     19676     19674     19682     19685
     19676     19677     19679     19680     19676     19677     19679     19681
     19676     19677     19679     19691     19677     19676     19674     19682
     19677     19679     19691     19692     19677     19679     19691     19693
     19677     19679     19691     19694     19678     19677     19679     19680
     19678     19677     19679     19681     19678     19677     19679     19691
     19679     19691     19694     19695     19679     19691     19694     19696
     19679     19691     19694     19697     19680     19679     19691     19692
     19680     19679     19691     19693     19680     19679     19691     19694
     19681     19679     19691     19692     19681     19679     19691     19693
     19681     19679     19691     19694     19682     19685     19686     19687
     19682     19685     19686     19688     19683     19682     19685     19686
     19684     19682     19685     19686     19685     19686     19688     19689
     19685     19686     19688     19690     19685     19686     19688     19738
     19686     19688     19738     19739     19686     19688     19738     19740
     19686     19688     19738     19741     19687     19686     19688     19689
     19687     19686     19688     19690     19687     19686     19688     19738
     19688     19738     19741     19742     19688     19738     19741     19743
     19688     19738     19741     19744     19689     19688     19738     19739
     19689     19688     19738     19740     19689     19688     19738     19741
     19690     19688     19738     19739     19690     19688     19738     19740
     19690     19688     19738     19741     19691     19694     19697     19698
     19691     19694     19697     19699     19692     19691     19694     19695
     19692     19691     19694     19696     19692     19691     19694     19697
     19693     19691     19694     19695     19693     19691     19694     19696
     19693     19691     19694     19697     19694     19697     19699     19700
     19694     19697     19699     19701     19695     19694     19697     19698
     19695     19694     19697     19699     19696     19694     19697     19698
     19696     19694     19697     19699     19697     19699     19701     19702
     19697     19699     19701     19703     19697     19699     19701     19704
     19698     19697     19699     19700     19698     19697     19699     19701
     19699     19701     19704     19705     19699     19701     19704     19706
     19700     19699     19701     19702     19700     19699     19701     19703
     19700     19699     19701     19704     19701     19704     19706     19707
     19701     19704     19706     19708     19702     19701     19704     19705
     19702     19701     19704     19706     19703     19701     19704     19705
     19703     19701     19704     19706     19704     19706     19708     19709
     19704     19706     19708     19710     19704     19706     19708     19711
     19705     19704     19706     19707     19705     19704     19706     19708
     19706     19708     19711     19712     19706     19708     19711     19713
     19707     19706     19708     19709     19707     19706     19708     19710
     19707     19706     19708     19711     19708     19711     19713     19714
     19708     19711     19713     19715     19709     19708     19711     19712
     19709     19708     19711     19713     19710     19708     19711     19712
     19710     19708     19711     19713     19711     19713     19715     19716
     19711     19713     19715     19717     19711     19713     19715     19718
     19712     19711     19713     19714     19712     19711     19713     19715
     19713     19715     19718     19719     19713     19715     19718     19720
     19714     19713     19715     19716     19714     19713     19715     19717
     19714     19713     19715     19718     19715     19718     19720     19721
     19715     19718     19720     19722     19716     19715     19718     19719
     19716     19715     19718     19720     19717     19715     19718     19719
     19717     19715     19718     19720     19718     19720     19722     19723
     19718     19720     19722     19724     19718     19720     19722     19725
     19719     19718     19720     19721     19719     19718     19720     19722
     19720     19722     19725     19726     19720     19722     19725     19727
     19720     19722     19725     19728     19721     19720     19722     19723
     19721     19720     19722     19724     19721     19720     19722     19725
     19722     19725     19728     19729     19722     19725     19728     19730
     19722     19725     19728     19731     19723     19722     19725     19726
     19723     19722     19725     19727     19723     19722     19725     19728
     19724     19722     19725     19726     19724     19722     19725     19727
     19724     19722     19725     19728     19725     19728     19731     19732
     19725     19728     19731     19733     19725     19728     19731     19734
     19726     19725     19728     19729     19726     19725     19728     19730
     19726     19725     19728     19731     19727     19725     19728     19729
     19727     19725     19728     19730     19727     19725     19728     19731
     19728     19731     19734     19735     19728     19731     19734     19736
     19728     19731     19734     19737     19729     19728     19731     19732
     19729     19728     19731     19733     19729     19728     19731     19734
     19730     19728     19731     19732     19730     19728     19731     19733
     19730     19728     19731     19734     19732     19731     19734     19735
     19732     19731     19734     19736     19732     19731     19734     19737
     19733     19731     19734     19735     19733     19731     19734     19736
     19733     19731     19734     19737     19738     19741     19744     19745
     19738     19741     19744     19746     19738     19741     19744     19747
     19739     19738     19741     19742     19739     19738     19741     19743
     19739     19738     19741     19744     19740     19738     19741     19742
     19740     19738     19741     19743     19740     19738     19741     19744
     19741     19744     19747     19748     19741     19744     19747     19749
     19741     19744     19747     19750     19742     19741     19744     19745
     19742     19741     19744     19746     19742     19741     19744     19747
     19743     19741     19744     19745     19743     19741     19744     19746
     19743     19741     19744     19747     19744     19747     19750     19751
     19744     19747     19750     19752     19744     19747     19750     19753
     19745     19744     19747     19748     19745     19744     19747     19749
     19745     19744     19747     19750     19746     19744     19747     19748
     19746     19744     19747     19749     19746     19744     19747     19750
     19747     19750     19753     19754     19747     19750     19753     19755
     19747     19750     19753     19756     19748     19747     19750     19751
     19748     19747     19750     19752     19748     19747     19750     19753
     19749     19747     19750     19751     19749     19747     19750     19752
     19749     19747     19750     19753     19750     19753     19756     19757
     19750     19753     19756     19758     19750     19753     19756     19759
     19751     19750     19753     19754     19751     19750     19753     19755
     19751     19750     19753     19756     19752     19750     19753     19754
     19752     19750     19753     19755     19752     19750     19753     19756
     19753     19756     19759     19760     19753     19756     19759     19761
     19753     19756     19759     19762     19754     19753     19756     19757
     19754     19753     19756     19758     19754     19753     19756     19759
     19755     19753     19756     19757     19755     19753     19756     19758
     19755     19753     19756     19759     19756     19759     19762     19763
     19756     19759     19762     19764     19756     19759     19762     19765
     19757     19756     19759     19760     19757     19756     19759     19761
     19757     19756     19759     19762     19758     19756     19759     19760
     19758     19756     19759     19761     19758     19756     19759     19762
     19759     19762     19765     19766     19759     19762     19765     19767
     19759     19762     19765     19768     19760     19759     19762     19763
     19760     19759     19762     19764     19760     19759     19762     19765
     19761     19759     19762     19763     19761     19759     19762     19764
     19761     19759     19762     19765     19762     19765     19768     19769
     19762     19765     19768     19770     19762     19765     19768     19771
     19763     19762     19765     19766     19763     19762     19765     19767
     19763     19762     19765     19768     19764     19762     19765     19766
     19764     19762     19765     19767     19764     19762     19765     19768
     19765     19768     19771     19772     19765     19768     19771     19773
     19765     19768     19771     19774     19766     19765     19768     19769
     19766     19765     19768     19770     19766     19765     19768     19771
     19767     19765     19768     19769     19767     19765     19768     19770
     19767     19765     19768     19771     19768     19771     19774     19775
     19768     19771     19774     19776     19768     19771     19774     19777
     19769     19768     19771     19772     19769     19768     19771     19773
     19769     19768     19771     19774     19770     19768     19771     19772
     19770     19768     19771     19773     19770     19768     19771     19774
     19771     19774     19777     19778     19771     19774     19777     19779
     19771     19774     19777     19780     19772     19771     19774     19775
     19772     19771     19774     19776     19772     19771     19774     19777
     19773     19771     19774     19775     19773     19771     19774     19776
     19773     19771     19774     19777     19774     19777     19780     19781
     19774     19777     19780     19782     19774     19777     19780     19783
     19775     19774     19777     19778     19775     19774     19777     19779
     19775     19774     19777     19780     19776     19774     19777     19778
     19776     19774     19777     19779     19776     19774     19777     19780
     19777     19780     19783     19784     19777     19780     19783     19785
     19777     19780     19783     19786     19778     19777     19780     19781
     19778     19777     19780     19782     19778     19777     19780     19783
     19779     19777     19780     19781     19779     19777     19780     19782
     19779     19777     19780     19783     19781     19780     19783     19784
     19781     19780     19783     19785     19781     19780     19783     19786
     19782     19780     19783     19784     19782     19780     19783     19785
     19782     19780     19783     19786     19787     19791     19794     19795
     19787     19791     19794     19825     19787     19833     19830     19825
     19787     19833     19830     19831     19787     19833     19830     19832
     19788     19787     19789     19790     19788     19787     19791     19792
     19788     19787     19791     19793     19788     19787     19791     19794
     19788     19787     19833     19830     19788     19787     19833     19834
     19788     19787     19833     19835     19789     19787     19791     19792
     19789     19787     19791     19793     19789     19787     19791     19794
     19789     19787     19833     19830     19789     19787     19833     19834
     19789     19787     19833     19835     19790     19789     19787     19791
     19790     19789     19787     19833     19791     19787     19833     19830
     19791     19787     19833     19834     19791     19787     19833     19835
     19791     19794     19795     19796     19791     19794     19795     19797
     19791     19794     19825     19823     19791     19794     19825     19826
     19791     19794     19825     19830     19792     19791     19787     19833
     19792     19791     19794     19795     19792     19791     19794     19825
     19793     19791     19787     19833     19793     19791     19794     19795
     19793     19791     19794     19825     19794     19791     19787     19833
     19794     19795     19797     19798     19794     19795     19797     19799
     19794     19795     19797     19800     19794     19825     19823     19800
     19794     19825     19823     19820     19794     19825     19823     19824
     19794     19825     19826     19827     19794     19825     19826     19828
     19794     19825     19826     19829     19794     19825     19830     19831
     19794     19825     19830     19832     19794     19825     19830     19833
     19795     19794     19825     19823     19795     19794     19825     19826
     19795     19794     19825     19830     19795     19797     19800     19801
     19795     19797     19800     19802     19795     19797     19800     19823
     19796     19795     19794     19825     19796     19795     19797     19798
     19796     19795     19797     19799     19796     19795     19797     19800
     19797     19795     19794     19825     19797     19800     19802     19803
     19797     19800     19802     19804     19797     19800     19802     19812
     19797     19800     19823     19820     19797     19800     19823     19824
     19797     19800     19823     19825     19798     19797     19800     19801
     19798     19797     19800     19802     19798     19797     19800     19823
     19799     19797     19800     19801     19799     19797     19800     19802
     19799     19797     19800     19823     19800     19802     19804     19805
     19800     19802     19804     19806     19800     19802     19804     19807
     19800     19802     19812     19810     19800     19802     19812     19813
     19800     19802     19812     19817     19800     19823     19820     19817
     19800     19823     19820     19821     19800     19823     19820     19822
     19800     19823     19825     19826     19800     19823     19825     19830
     19801     19800     19802     19803     19801     19800     19802     19804
     19801     19800     19802     19812     19801     19800     19823     19820
     19801     19800     19823     19824     19801     19800     19823     19825
     19802     19800     19823     19820     19802     19800     19823     19824
     19802     19800     19823     19825     19802     19804     19807     19808
     19802     19804     19807     19809     19802     19804     19807     19810
     19802     19812     19810     19807     19802     19812     19810     19811
     19802     19812     19810     19836     19802     19812     19813     19814
     19802     19812     19813     19815     19802     19812     19813     19816
     19802     19812     19817     19818     19802     19812     19817     19819
     19802     19812     19817     19820     19803     19802     19800     19823
     19803     19802     19804     19805     19803     19802     19804     19806
     19803     19802     19804     19807     19803     19802     19812     19810
     19803     19802     19812     19813     19803     19802     19812     19817
     19804     19802     19800     19823     19804     19802     19812     19810
     19804     19802     19812     19813     19804     19802     19812     19817
     19804     19807     19810     19811     19804     19807     19810     19812
     19804     19807     19810     19836     19805     19804     19802     19812
     19805     19804     19807     19808     19805     19804     19807     19809
     19805     19804     19807     19810     19806     19804     19802     19812
     19806     19804     19807     19808     19806     19804     19807     19809
     19806     19804     19807     19810     19807     19804     19802     19812
     19807     19810     19812     19813     19807     19810     19812     19817
     19807     19810     19836     19837     19807     19810     19836     19838
     19807     19810     19836     19842     19808     19807     19810     19811
     19808     19807     19810     19812     19808     19807     19810     19836
     19809     19807     19810     19811     19809     19807     19810     19812
     19809     19807     19810     19836     19810     19812     19813     19814
     19810     19812     19813     19815     19810     19812     19813     19816
     19810     19812     19817     19818     19810     19812     19817     19819
     19810     19812     19817     19820     19810     19836     19838     19839
     19810     19836     19838     19840     19810     19836     19838     19841
     19810     19836     19842     19843     19810     19836     19842     19844
     19810     19836     19842     19845     19811     19810     19812     19813
     19811     19810     19812     19817     19811     19810     19836     19837
     19811     19810     19836     19838     19811     19810     19836     19842
     19812     19802     19800     19823     19812     19810     19836     19837
     19812     19810     19836     19838     19812     19810     19836     19842
     19812     19817     19820     19821     19812     19817     19820     19822
     19812     19817     19820     19823     19813     19812     19810     19836
     19813     19812     19817     19818     19813     19812     19817     19819
     19813     19812     19817     19820     19814     19813     19812     19817
     19815     19813     19812     19817     19816     19813     19812     19817
     19817     19812     19810     19836     19817     19820     19823     19824
     19817     19820     19823     19825     19818     19817     19820     19821
     19818     19817     19820     19822     19818     19817     19820     19823
     19819     19817     19820     19821     19819     19817     19820     19822
     19819     19817     19820     19823     19820     19823     19825     19826
     19820     19823     19825     19830     19821     19820     19823     19824
     19821     19820     19823     19825     19822     19820     19823     19824
     19822     19820     19823     19825     19823     19825     19826     19827
     19823     19825     19826     19828     19823     19825     19826     19829
     19823     19825     19830     19831     19823     19825     19830     19832
     19823     19825     19830     19833     19824     19823     19825     19826
     19824     19823     19825     19830     19825     19830     19833     19834
     19825     19830     19833     19835     19826     19825     19830     19831
     19826     19825     19830     19832     19826     19825     19830     19833
     19827     19826     19825     19830     19828     19826     19825     19830
     19829     19826     19825     19830     19831     19830     19833     19834
     19831     19830     19833     19835     19832     19830     19833     19834
     19832     19830     19833     19835     19836     19842     19845     19846
     19836     19842     19845     19847     19836     19842     19845     19848
     19837     19836     19838     19839     19837     19836     19838     19840
     19837     19836     19838     19841     19837     19836     19842     19843
     19837     19836     19842     19844     19837     19836     19842     19845
     19838     19836     19842     19843     19838     19836     19842     19844
     19838     19836     19842     19845     19839     19838     19836     19842
     19840     19838     19836     19842     19841     19838     19836     19842
     19842     19845     19848     19849     19842     19845     19848     19850
     19842     19845     19848     19851     19843     19842     19845     19846
     19843     19842     19845     19847     19843     19842     19845     19848
     19844     19842     19845     19846     19844     19842     19845     19847
     19844     19842     19845     19848     19845     19848     19851     19852
     19845     19848     19851     19853     19845     19848     19851     19857
     19846     19845     19848     19849     19846     19845     19848     19850
     19846     19845     19848     19851     19847     19845     19848     19849
     19847     19845     19848     19850     19847     19845     19848     19851
     19848     19851     19853     19854     19848     19851     19853     19855
     19848     19851     19853     19856     19848     19851     19857     19858
     19848     19851     19857     19859     19848     19851     19857     19860
     19849     19848     19851     19852     19849     19848     19851     19853
     19849     19848     19851     19857     19850     19848     19851     19852
     19850     19848     19851     19853     19850     19848     19851     19857
     19852     19851     19853     19854     19852     19851     19853     19855
     19852     19851     19853     19856     19852     19851     19857     19858
     19852     19851     19857     19859     19852     19851     19857     19860
     19853     19851     19857     19858     19853     19851     19857     19859
     19853     19851     19857     19860     19854     19853     19851     19857
     19855     19853     19851     19857     19856     19853     19851     19857
     19861     19865     19868     19869     19861     19865     19868     19899
     19861     19907     19904     19899     19861     19907     19904     19905
     19861     19907     19904     19906     19862     19861     19863     19864
     19862     19861     19865     19866     19862     19861     19865     19867
     19862     19861     19865     19868     19862     19861     19907     19904
     19862     19861     19907     19908     19862     19861     19907     19909
     19863     19861     19865     19866     19863     19861     19865     19867
     19863     19861     19865     19868     19863     19861     19907     19904
     19863     19861     19907     19908     19863     19861     19907     19909
     19864     19863     19861     19865     19864     19863     19861     19907
     19865     19861     19907     19904     19865     19861     19907     19908
     19865     19861     19907     19909     19865     19868     19869     19870
     19865     19868     19869     19871     19865     19868     19899     19897
     19865     19868     19899     19900     19865     19868     19899     19904
     19866     19865     19861     19907     19866     19865     19868     19869
     19866     19865     19868     19899     19867     19865     19861     19907
     19867     19865     19868     19869     19867     19865     19868     19899
     19868     19865     19861     19907     19868     19869     19871     19872
     19868     19869     19871     19873     19868     19869     19871     19874
     19868     19899     19897     19874     19868     19899     19897     19894
     19868     19899     19897     19898     19868     19899     19900     19901
     19868     19899     19900     19902     19868     19899     19900     19903
     19868     19899     19904     19905     19868     19899     19904     19906
     19868     19899     19904     19907     19869     19868     19899     19897
     19869     19868     19899     19900     19869     19868     19899     19904
     19869     19871     19874     19875     19869     19871     19874     19876
     19869     19871     19874     19897     19870     19869     19868     19899
     19870     19869     19871     19872     19870     19869     19871     19873
     19870     19869     19871     19874     19871     19869     19868     19899
     19871     19874     19876     19877     19871     19874     19876     19878
     19871     19874     19876     19886     19871     19874     19897     19894
     19871     19874     19897     19898     19871     19874     19897     19899
     19872     19871     19874     19875     19872     19871     19874     19876
     19872     19871     19874     19897     19873     19871     19874     19875
     19873     19871     19874     19876     19873     19871     19874     19897
     19874     19876     19878     19879     19874     19876     19878     19880
     19874     19876     19878     19881     19874     19876     19886     19884
     19874     19876     19886     19887     19874     19876     19886     19891
     19874     19897     19894     19891     19874     19897     19894     19895
     19874     19897     19894     19896     19874     19897     19899     19900
     19874     19897     19899     19904     19875     19874     19876     19877
     19875     19874     19876     19878     19875     19874     19876     19886
     19875     19874     19897     19894     19875     19874     19897     19898
     19875     19874     19897     19899     19876     19874     19897     19894
     19876     19874     19897     19898     19876     19874     19897     19899
     19876     19878     19881     19882     19876     19878     19881     19883
     19876     19878     19881     19884     19876     19886     19884     19881
     19876     19886     19884     19885     19876     19886     19884     19910
     19876     19886     19887     19888     19876     19886     19887     19889
     19876     19886     19887     19890     19876     19886     19891     19892
     19876     19886     19891     19893     19876     19886     19891     19894
     19877     19876     19874     19897     19877     19876     19878     19879
     19877     19876     19878     19880     19877     19876     19878     19881
     19877     19876     19886     19884     19877     19876     19886     19887
     19877     19876     19886     19891     19878     19876     19874     19897
     19878     19876     19886     19884     19878     19876     19886     19887
     19878     19876     19886     19891     19878     19881     19884     19885
     19878     19881     19884     19886     19878     19881     19884     19910
     19879     19878     19876     19886     19879     19878     19881     19882
     19879     19878     19881     19883     19879     19878     19881     19884
     19880     19878     19876     19886     19880     19878     19881     19882
     19880     19878     19881     19883     19880     19878     19881     19884
     19881     19878     19876     19886     19881     19884     19886     19887
     19881     19884     19886     19891     19881     19884     19910     19911
     19881     19884     19910     19912     19881     19884     19910     19916
     19882     19881     19884     19885     19882     19881     19884     19886
     19882     19881     19884     19910     19883     19881     19884     19885
     19883     19881     19884     19886     19883     19881     19884     19910
     19884     19886     19887     19888     19884     19886     19887     19889
     19884     19886     19887     19890     19884     19886     19891     19892
     19884     19886     19891     19893     19884     19886     19891     19894
     19884     19910     19912     19913     19884     19910     19912     19914
     19884     19910     19912     19915     19884     19910     19916     19917
     19884     19910     19916     19918     19884     19910     19916     19919
     19885     19884     19886     19887     19885     19884     19886     19891
     19885     19884     19910     19911     19885     19884     19910     19912
     19885     19884     19910     19916     19886     19876     19874     19897
     19886     19884     19910     19911     19886     19884     19910     19912
     19886     19884     19910     19916     19886     19891     19894     19895
     19886     19891     19894     19896     19886     19891     19894     19897
     19887     19886     19884     19910     19887     19886     19891     19892
     19887     19886     19891     19893     19887     19886     19891     19894
     19888     19887     19886     19891     19889     19887     19886     19891
     19890     19887     19886     19891     19891     19886     19884     19910
     19891     19894     19897     19898     19891     19894     19897     19899
     19892     19891     19894     19895     19892     19891     19894     19896
     19892     19891     19894     19897     19893     19891     19894     19895
     19893     19891     19894     19896     19893     19891     19894     19897
     19894     19897     19899     19900     19894     19897     19899     19904
     19895     19894     19897     19898     19895     19894     19897     19899
     19896     19894     19897     19898     19896     19894     19897     19899
     19897     19899     19900     19901     19897     19899     19900     19902
     19897     19899     19900     19903     19897     19899     19904     19905
     19897     19899     19904     19906     19897     19899     19904     19907
     19898     19897     19899     19900     19898     19897     19899     19904
     19899     19904     19907     19908     19899     19904     19907     19909
     19900     19899     19904     19905     19900     19899     19904     19906
     19900     19899     19904     19907     19901     19900     19899     19904
     19902     19900     19899     19904     19903     19900     19899     19904
     19905     19904     19907     19908     19905     19904     19907     19909
     19906     19904     19907     19908     19906     19904     19907     19909
     19910     19916     19919     19920     19910     19916     19919     19921
     19910     19916     19919     19922     19911     19910     19912     19913
     19911     19910     19912     19914     19911     19910     19912     19915
     19911     19910     19916     19917     19911     19910     19916     19918
     19911     19910     19916     19919     19912     19910     19916     19917
     19912     19910     19916     19918     19912     19910     19916     19919
     19913     19912     19910     19916     19914     19912     19910     19916
     19915     19912     19910     19916     19916     19919     19922     19923
     19916     19919     19922     19924     19916     19919     19922     19925
     19917     19916     19919     19920     19917     19916     19919     19921
     19917     19916     19919     19922     19918     19916     19919     19920
     19918     19916     19919     19921     19918     19916     19919     19922
     19919     19922     19925     19926     19919     19922     19925     19927
     19919     19922     19925     19931     19920     19919     19922     19923
     19920     19919     19922     19924     19920     19919     19922     19925
     19921     19919     19922     19923     19921     19919     19922     19924
     19921     19919     19922     19925     19922     19925     19927     19928
     19922     19925     19927     19929     19922     19925     19927     19930
     19922     19925     19931     19932     19922     19925     19931     19933
     19922     19925     19931     19934     19923     19922     19925     19926
     19923     19922     19925     19927     19923     19922     19925     19931
     19924     19922     19925     19926     19924     19922     19925     19927
     19924     19922     19925     19931     19926     19925     19927     19928
     19926     19925     19927     19929     19926     19925     19927     19930
     19926     19925     19931     19932     19926     19925     19931     19933
     19926     19925     19931     19934     19927     19925     19931     19932
     19927     19925     19931     19933     19927     19925     19931     19934
     19928     19927     19925     19931     19929     19927     19925     19931
     19930     19927     19925     19931     19935     19948     19951     19952
     19935     19948     19951     19953     19935     19948     19951     19957
     19936     19935     19940     19941     19936     19935     19940     19942
     19936     19935     19940     19943     19936     19935     19944     19945
     19936     19935     19944     19946     19936     19935     19944     19947
     19936     19935     19948     19949     19936     19935     19948     19950
     19936     19935     19948     19951     19937     19936     19935     19940
     19937     19936     19935     19944     19937     19936     19935     19948
     19938     19936     19935     19940     19938     19936     19935     19944
     19938     19936     19935     19948     19939     19936     19935     19940
     19939     19936     19935     19944     19939     19936     19935     19948
     19940     19935     19944     19945     19940     19935     19944     19946
     19940     19935     19944     19947     19940     19935     19948     19949
     19940     19935     19948     19950     19940     19935     19948     19951
     19941     19940     19935     19944     19941     19940     19935     19948
     19942     19940     19935     19944     19942     19940     19935     19948
     19943     19940     19935     19944     19943     19940     19935     19948
     19944     19935     19948     19949     19944     19935     19948     19950
     19944     19935     19948     19951     19945     19944     19935     19948
     19946     19944     19935     19948     19947     19944     19935     19948
     19948     19951     19957     19954     19949     19948     19951     19952
     19949     19948     19951     19953     19949     19948     19951     19957
     19950     19948     19951     19952     19950     19948     19951     19953
     19950     19948     19951     19957     19951     19957     19954     19955
     19951     19957     19954     19956     19951     19957     19954     19958
     19952     19951     19957     19954     19953     19951     19957     19954
     19954     19958     19959     19960     19954     19958     19959     19961
     19954     19958     19959     19962     19955     19954     19958     19959
     19956     19954     19958     19959     19957     19954     19958     19959
     19958     19959     19962     19963     19958     19959     19962     19964
     19958     19959     19962     19970     19959     19962     19964     19965
     19959     19962     19970     19971     19959     19962     19970     19972
     19959     19962     19970     19973     19960     19959     19962     19963
     19960     19959     19962     19964     19960     19959     19962     19970
     19961     19959     19962     19963     19961     19959     19962     19964
     19961     19959     19962     19970     19962     19964     19965     19966
     19962     19964     19965     19967     19962     19970     19973     19974
     19963     19962     19964     19965     19963     19962     19970     19971
     19963     19962     19970     19972     19963     19962     19970     19973
     19964     19962     19970     19971     19964     19962     19970     19972
     19964     19962     19970     19973     19964     19965     19967     19968
     19964     19965     19967     19969     19964     19965     19967     19979
     19965     19964     19962     19970     19965     19967     19979     19980
     19965     19967     19979     19981     19965     19967     19979     19982
     19966     19965     19967     19968     19966     19965     19967     19969
     19966     19965     19967     19979     19967     19979     19982     19983
     19967     19979     19982     19984     19967     19979     19982     19985
     19968     19967     19979     19980     19968     19967     19979     19981
     19968     19967     19979     19982     19969     19967     19979     19980
     19969     19967     19979     19981     19969     19967     19979     19982
     19970     19973     19974     19975     19970     19973     19974     19976
     19971     19970     19973     19974     19972     19970     19973     19974
     19973     19974     19976     19977     19973     19974     19976     19978
     19973     19974     19976     20024     19974     19976     20024     20025
     19974     19976     20024     20026     19974     19976     20024     20027
     19975     19974     19976     19977     19975     19974     19976     19978
     19975     19974     19976     20024     19976     20024     20027     20028
     19976     20024     20027     20029     19976     20024     20027     20030
     19977     19976     20024     20025     19977     19976     20024     20026
     19977     19976     20024     20027     19978     19976     20024     20025
     19978     19976     20024     20026     19978     19976     20024     20027
     19979     19982     19985     19986     19979     19982     19985     19987
     19979     19982     19985     19988     19980     19979     19982     19983
     19980     19979     19982     19984     19980     19979     19982     19985
     19981     19979     19982     19983     19981     19979     19982     19984
     19981     19979     19982     19985     19982     19985     19988     19989
     19982     19985     19988     19990     19982     19985     19988     19991
     19983     19982     19985     19986     19983     19982     19985     19987
     19983     19982     19985     19988     19984     19982     19985     19986
     19984     19982     19985     19987     19984     19982     19985     19988
     19985     19988     19991     19992     19985     19988     19991     19993
     19985     19988     19991     19994     19986     19985     19988     19989
     19986     19985     19988     19990     19986     19985     19988     19991
     19987     19985     19988     19989     19987     19985     19988     19990
     19987     19985     19988     19991     19988     19991     19994     19995
     19988     19991     19994     19996     19988     19991     19994     19997
     19989     19988     19991     19992     19989     19988     19991     19993
     19989     19988     19991     19994     19990     19988     19991     19992
     19990     19988     19991     19993     19990     19988     19991     19994
     19991     19994     19997     19998     19991     19994     19997     19999
     19992     19991     19994     19995     19992     19991     19994     19996
     19992     19991     19994     19997     19993     19991     19994     19995
     19993     19991     19994     19996     19993     19991     19994     19997
     19994     19997     19999     20000     19994     19997     19999     20001
     19995     19994     19997     19998     19995     19994     19997     19999
     19996     19994     19997     19998     19996     19994     19997     19999
     19997     19999     20001     20002     19997     19999     20001     20003
     19997     19999     20001     20004     19998     19997     19999     20000
     19998     19997     19999     20001     19999     20001     20004     20005
     19999     20001     20004     20006     20000     19999     20001     20002
     20000     19999     20001     20003     20000     19999     20001     20004
     20001     20004     20006     20007     20001     20004     20006     20008
     20002     20001     20004     20005     20002     20001     20004     20006
     20003     20001     20004     20005     20003     20001     20004     20006
     20004     20006     20008     20009     20004     20006     20008     20010
     20004     20006     20008     20011     20005     20004     20006     20007
     20005     20004     20006     20008     20006     20008     20011     20012
     20006     20008     20011     20013     20006     20008     20011     20014
     20007     20006     20008     20009     20007     20006     20008     20010
     20007     20006     20008     20011     20008     20011     20014     20015
     20008     20011     20014     20016     20008     20011     20014     20017
     20009     20008     20011     20012     20009     20008     20011     20013
     20009     20008     20011     20014     20010     20008     20011     20012
     20010     20008     20011     20013     20010     20008     20011     20014
     20011     20014     20017     20018     20011     20014     20017     20019
     20011     20014     20017     20020     20012     20011     20014     20015
     20012     20011     20014     20016     20012     20011     20014     20017
     20013     20011     20014     20015     20013     20011     20014     20016
     20013     20011     20014     20017     20014     20017     20020     20021
     20014     20017     20020     20022     20014     20017     20020     20023
     20015     20014     20017     20018     20015     20014     20017     20019
     20015     20014     20017     20020     20016     20014     20017     20018
     20016     20014     20017     20019     20016     20014     20017     20020
     20018     20017     20020     20021     20018     20017     20020     20022
     20018     20017     20020     20023     20019     20017     20020     20021
     20019     20017     20020     20022     20019     20017     20020     20023
     20024     20027     20030     20031     20024     20027     20030     20032
     20024     20027     20030     20033     20025     20024     20027     20028
     20025     20024     20027     20029     20025     20024     20027     20030
     20026     20024     20027     20028     20026     20024     20027     20029
     20026     20024     20027     20030     20027     20030     20033     20034
     20027     20030     20033     20035     20027     20030     20033     20036
     20028     20027     20030     20031     20028     20027     20030     20032
     20028     20027     20030     20033     20029     20027     20030     20031
     20029     20027     20030     20032     20029     20027     20030     20033
     20030     20033     20036     20037     20030     20033     20036     20038
     20030     20033     20036     20039     20031     20030     20033     20034
     20031     20030     20033     20035     20031     20030     20033     20036
     20032     20030     20033     20034     20032     20030     20033     20035
     20032     20030     20033     20036     20033     20036     20039     20040
     20033     20036     20039     20041     20033     20036     20039     20042
     20034     20033     20036     20037     20034     20033     20036     20038
     20034     20033     20036     20039     20035     20033     20036     20037
     20035     20033     20036     20038     20035     20033     20036     20039
     20036     20039     20042     20043     20036     20039     20042     20044
     20036     20039     20042     20045     20037     20036     20039     20040
     20037     20036     20039     20041     20037     20036     20039     20042
     20038     20036     20039     20040     20038     20036     20039     20041
     20038     20036     20039     20042     20039     20042     20045     20046
     20039     20042     20045     20047     20039     20042     20045     20048
     20040     20039     20042     20043     20040     20039     20042     20044
     20040     20039     20042     20045     20041     20039     20042     20043
     20041     20039     20042     20044     20041     20039     20042     20045
     20042     20045     20048     20049     20042     20045     20048     20050
     20042     20045     20048     20051     20043     20042     20045     20046
     20043     20042     20045     20047     20043     20042     20045     20048
     20044     20042     20045     20046     20044     20042     20045     20047
     20044     20042     20045     20048     20045     20048     20051     20052
     20045     20048     20051     20053     20045     20048     20051     20054
     20046     20045     20048     20049     20046     20045     20048     20050
     20046     20045     20048     20051     20047     20045     20048     20049
     20047     20045     20048     20050     20047     20045     20048     20051
     20048     20051     20054     20055     20048     20051     20054     20056
     20048     20051     20054     20057     20049     20048     20051     20052
     20049     20048     20051     20053     20049     20048     20051     20054
     20050     20048     20051     20052     20050     20048     20051     20053
     20050     20048     20051     20054     20051     20054     20057     20058
     20051     20054     20057     20059     20051     20054     20057     20060
     20052     20051     20054     20055     20052     20051     20054     20056
     20052     20051     20054     20057     20053     20051     20054     20055
     20053     20051     20054     20056     20053     20051     20054     20057
     20054     20057     20060     20061     20054     20057     20060     20062
     20054     20057     20060     20063     20055     20054     20057     20058
     20055     20054     20057     20059     20055     20054     20057     20060
     20056     20054     20057     20058     20056     20054     20057     20059
     20056     20054     20057     20060     20057     20060     20063     20064
     20057     20060     20063     20065     20057     20060     20063     20066
     20058     20057     20060     20061     20058     20057     20060     20062
     20058     20057     20060     20063     20059     20057     20060     20061
     20059     20057     20060     20062     20059     20057     20060     20063
     20060     20063     20066     20067     20060     20063     20066     20068
     20060     20063     20066     20069     20061     20060     20063     20064
     20061     20060     20063     20065     20061     20060     20063     20066
     20062     20060     20063     20064     20062     20060     20063     20065
     20062     20060     20063     20066     20063     20066     20069     20070
     20063     20066     20069     20071     20063     20066     20069     20072
     20064     20063     20066     20067     20064     20063     20066     20068
     20064     20063     20066     20069     20065     20063     20066     20067
     20065     20063     20066     20068     20065     20063     20066     20069
     20067     20066     20069     20070     20067     20066     20069     20071
     20067     20066     20069     20072     20068     20066     20069     20070
     20068     20066     20069     20071     20068     20066     20069     20072
     20073     20077     20080     20081     20073     20077     20080     20111
     20073     20119     20116     20111     20073     20119     20116     20117
     20073     20119     20116     20118     20074     20073     20075     20076
     20074     20073     20077     20078     20074     20073     20077     20079
     20074     20073     20077     20080     20074     20073     20119     20116
     20074     20073     20119     20120     20074     20073     20119     20121
     20075     20073     20077     20078     20075     20073     20077     20079
     20075     20073     20077     20080     20075     20073     20119     20116
     20075     20073     20119     20120     20075     20073     20119     20121
     20076     20075     20073     20077     20076     20075     20073     20119
     20077     20073     20119     20116     20077     20073     20119     20120
     20077     20073     20119     20121     20077     20080     20081     20082
     20077     20080     20081     20083     20077     20080     20111     20109
     20077     20080     20111     20112     20077     20080     20111     20116
     20078     20077     20073     20119     20078     20077     20080     20081
     20078     20077     20080     20111     20079     20077     20073     20119
     20079     20077     20080     20081     20079     20077     20080     20111
     20080     20077     20073     20119     20080     20081     20083     20084
     20080     20081     20083     20085     20080     20081     20083     20086
     20080     20111     20109     20086     20080     20111     20109     20106
     20080     20111     20109     20110     20080     20111     20112     20113
     20080     20111     20112     20114     20080     20111     20112     20115
     20080     20111     20116     20117     20080     20111     20116     20118
     20080     20111     20116     20119     20081     20080     20111     20109
     20081     20080     20111     20112     20081     20080     20111     20116
     20081     20083     20086     20087     20081     20083     20086     20088
     20081     20083     20086     20109     20082     20081     20080     20111
     20082     20081     20083     20084     20082     20081     20083     20085
     20082     20081     20083     20086     20083     20081     20080     20111
     20083     20086     20088     20089     20083     20086     20088     20090
     20083     20086     20088     20098     20083     20086     20109     20106
     20083     20086     20109     20110     20083     20086     20109     20111
     20084     20083     20086     20087     20084     20083     20086     20088
     20084     20083     20086     20109     20085     20083     20086     20087
     20085     20083     20086     20088     20085     20083     20086     20109
     20086     20088     20090     20091     20086     20088     20090     20092
     20086     20088     20090     20093     20086     20088     20098     20096
     20086     20088     20098     20099     20086     20088     20098     20103
     20086     20109     20106     20103     20086     20109     20106     20107
     20086     20109     20106     20108     20086     20109     20111     20112
     20086     20109     20111     20116     20087     20086     20088     20089
     20087     20086     20088     20090     20087     20086     20088     20098
     20087     20086     20109     20106     20087     20086     20109     20110
     20087     20086     20109     20111     20088     20086     20109     20106
     20088     20086     20109     20110     20088     20086     20109     20111
     20088     20090     20093     20094     20088     20090     20093     20095
     20088     20090     20093     20096     20088     20098     20096     20093
     20088     20098     20096     20097     20088     20098     20096     20122
     20088     20098     20099     20100     20088     20098     20099     20101
     20088     20098     20099     20102     20088     20098     20103     20104
     20088     20098     20103     20105     20088     20098     20103     20106
     20089     20088     20086     20109     20089     20088     20090     20091
     20089     20088     20090     20092     20089     20088     20090     20093
     20089     20088     20098     20096     20089     20088     20098     20099
     20089     20088     20098     20103     20090     20088     20086     20109
     20090     20088     20098     20096     20090     20088     20098     20099
     20090     20088     20098     20103     20090     20093     20096     20097
     20090     20093     20096     20098     20090     20093     20096     20122
     20091     20090     20088     20098     20091     20090     20093     20094
     20091     20090     20093     20095     20091     20090     20093     20096
     20092     20090     20088     20098     20092     20090     20093     20094
     20092     20090     20093     20095     20092     20090     20093     20096
     20093     20090     20088     20098     20093     20096     20098     20099
     20093     20096     20098     20103     20093     20096     20122     20123
     20093     20096     20122     20124     20093     20096     20122     20128
     20094     20093     20096     20097     20094     20093     20096     20098
     20094     20093     20096     20122     20095     20093     20096     20097
     20095     20093     20096     20098     20095     20093     20096     20122
     20096     20098     20099     20100     20096     20098     20099     20101
     20096     20098     20099     20102     20096     20098     20103     20104
     20096     20098     20103     20105     20096     20098     20103     20106
     20096     20122     20124     20125     20096     20122     20124     20126
     20096     20122     20124     20127     20096     20122     20128     20129
     20096     20122     20128     20130     20096     20122     20128     20131
     20097     20096     20098     20099     20097     20096     20098     20103
     20097     20096     20122     20123     20097     20096     20122     20124
     20097     20096     20122     20128     20098     20088     20086     20109
     20098     20096     20122     20123     20098     20096     20122     20124
     20098     20096     20122     20128     20098     20103     20106     20107
     20098     20103     20106     20108     20098     20103     20106     20109
     20099     20098     20096     20122     20099     20098     20103     20104
     20099     20098     20103     20105     20099     20098     20103     20106
     20100     20099     20098     20103     20101     20099     20098     20103
     20102     20099     20098     20103     20103     20098     20096     20122
     20103     20106     20109     20110     20103     20106     20109     20111
     20104     20103     20106     20107     20104     20103     20106     20108
     20104     20103     20106     20109     20105     20103     20106     20107
     20105     20103     20106     20108     20105     20103     20106     20109
     20106     20109     20111     20112     20106     20109     20111     20116
     20107     20106     20109     20110     20107     20106     20109     20111
     20108     20106     20109     20110     20108     20106     20109     20111
     20109     20111     20112     20113     20109     20111     20112     20114
     20109     20111     20112     20115     20109     20111     20116     20117
     20109     20111     20116     20118     20109     20111     20116     20119
     20110     20109     20111     20112     20110     20109     20111     20116
     20111     20116     20119     20120     20111     20116     20119     20121
     20112     20111     20116     20117     20112     20111     20116     20118
     20112     20111     20116     20119     20113     20112     20111     20116
     20114     20112     20111     20116     20115     20112     20111     20116
     20117     20116     20119     20120     20117     20116     20119     20121
     20118     20116     20119     20120     20118     20116     20119     20121
     20122     20128     20131     20132     20122     20128     20131     20133
     20122     20128     20131     20134     20123     20122     20124     20125
     20123     20122     20124     20126     20123     20122     20124     20127
     20123     20122     20128     20129     20123     20122     20128     20130
     20123     20122     20128     20131     20124     20122     20128     20129
     20124     20122     20128     20130     20124     20122     20128     20131
     20125     20124     20122     20128     20126     20124     20122     20128
     20127     20124     20122     20128     20128     20131     20134     20135
     20128     20131     20134     20136     20128     20131     20134     20137
     20129     20128     20131     20132     20129     20128     20131     20133
     20129     20128     20131     20134     20130     20128     20131     20132
     20130     20128     20131     20133     20130     20128     20131     20134
     20131     20134     20137     20138     20131     20134     20137     20139
     20131     20134     20137     20143     20132     20131     20134     20135
     20132     20131     20134     20136     20132     20131     20134     20137
     20133     20131     20134     20135     20133     20131     20134     20136
     20133     20131     20134     20137     20134     20137     20139     20140
     20134     20137     20139     20141     20134     20137     20139     20142
     20134     20137     20143     20144     20134     20137     20143     20145
     20134     20137     20143     20146     20135     20134     20137     20138
     20135     20134     20137     20139     20135     20134     20137     20143
     20136     20134     20137     20138     20136     20134     20137     20139
     20136     20134     20137     20143     20138     20137     20139     20140
     20138     20137     20139     20141     20138     20137     20139     20142
     20138     20137     20143     20144     20138     20137     20143     20145
     20138     20137     20143     20146     20139     20137     20143     20144
     20139     20137     20143     20145     20139     20137     20143     20146
     20140     20139     20137     20143     20141     20139     20137     20143
     20142     20139     20137     20143     20147     20151     20154     20155
     20147     20151     20154     20156     20147     20151     20154     20160
     20148     20147     20151     20152     20148     20147     20151     20153
     20148     20147     20151     20154     20149     20147     20151     20152
     20149     20147     20151     20153     20149     20147     20151     20154
     20150     20147     20151     20152     20150     20147     20151     20153
     20150     20147     20151     20154     20151     20154     20160     20157
     20152     20151     20154     20155     20152     20151     20154     20156
     20152     20151     20154     20160     20153     20151     20154     20155
     20153     20151     20154     20156     20153     20151     20154     20160
     20154     20160     20157     20158     20154     20160     20157     20159
     20154     20160     20157     20161     20155     20154     20160     20157
     20156     20154     20160     20157     20157     20161     20162     20163
     20157     20161     20162     20164     20157     20161     20162     20165
     20158     20157     20161     20162     20159     20157     20161     20162
     20160     20157     20161     20162     20161     20162     20165     20166
     20161     20162     20165     20167     20161     20162     20165     20173
     20162     20165     20167     20168     20162     20165     20173     20174
     20162     20165     20173     20175     20162     20165     20173     20176
     20163     20162     20165     20166     20163     20162     20165     20167
     20163     20162     20165     20173     20164     20162     20165     20166
     20164     20162     20165     20167     20164     20162     20165     20173
     20165     20167     20168     20169     20165     20167     20168     20170
     20165     20173     20176     20177     20166     20165     20167     20168
     20166     20165     20173     20174     20166     20165     20173     20175
     20166     20165     20173     20176     20167     20165     20173     20174
     20167     20165     20173     20175     20167     20165     20173     20176
     20167     20168     20170     20171     20167     20168     20170     20172
     20167     20168     20170     20182     20168     20167     20165     20173
     20168     20170     20182     20183     20168     20170     20182     20184
     20168     20170     20182     20185     20169     20168     20170     20171
     20169     20168     20170     20172     20169     20168     20170     20182
     20170     20182     20185     20186     20170     20182     20185     20187
     20170     20182     20185     20188     20171     20170     20182     20183
     20171     20170     20182     20184     20171     20170     20182     20185
     20172     20170     20182     20183     20172     20170     20182     20184
     20172     20170     20182     20185     20173     20176     20177     20178
     20173     20176     20177     20179     20174     20173     20176     20177
     20175     20173     20176     20177     20176     20177     20179     20180
     20176     20177     20179     20181     20176     20177     20179     20229
     20177     20179     20229     20230     20177     20179     20229     20231
     20177     20179     20229     20232     20178     20177     20179     20180
     20178     20177     20179     20181     20178     20177     20179     20229
     20179     20229     20232     20233     20179     20229     20232     20234
     20179     20229     20232     20235     20180     20179     20229     20230
     20180     20179     20229     20231     20180     20179     20229     20232
     20181     20179     20229     20230     20181     20179     20229     20231
     20181     20179     20229     20232     20182     20185     20188     20189
     20182     20185     20188     20190     20183     20182     20185     20186
     20183     20182     20185     20187     20183     20182     20185     20188
     20184     20182     20185     20186     20184     20182     20185     20187
     20184     20182     20185     20188     20185     20188     20190     20191
     20185     20188     20190     20192     20186     20185     20188     20189
     20186     20185     20188     20190     20187     20185     20188     20189
     20187     20185     20188     20190     20188     20190     20192     20193
     20188     20190     20192     20194     20188     20190     20192     20195
     20189     20188     20190     20191     20189     20188     20190     20192
     20190     20192     20195     20196     20190     20192     20195     20197
     20191     20190     20192     20193     20191     20190     20192     20194
     20191     20190     20192     20195     20192     20195     20197     20198
     20192     20195     20197     20199     20193     20192     20195     20196
     20193     20192     20195     20197     20194     20192     20195     20196
     20194     20192     20195     20197     20195     20197     20199     20200
     20195     20197     20199     20201     20195     20197     20199     20202
     20196     20195     20197     20198     20196     20195     20197     20199
     20197     20199     20202     20203     20197     20199     20202     20204
     20198     20197     20199     20200     20198     20197     20199     20201
     20198     20197     20199     20202     20199     20202     20204     20205
     20199     20202     20204     20206     20200     20199     20202     20203
     20200     20199     20202     20204     20201     20199     20202     20203
     20201     20199     20202     20204     20202     20204     20206     20207
     20202     20204     20206     20208     20202     20204     20206     20209
     20203     20202     20204     20205     20203     20202     20204     20206
     20204     20206     20209     20210     20204     20206     20209     20211
     20205     20204     20206     20207     20205     20204     20206     20208
     20205     20204     20206     20209     20206     20209     20211     20212
     20206     20209     20211     20213     20207     20206     20209     20210
     20207     20206     20209     20211     20208     20206     20209     20210
     20208     20206     20209     20211     20209     20211     20213     20214
     20209     20211     20213     20215     20209     20211     20213     20216
     20210     20209     20211     20212     20210     20209     20211     20213
     20211     20213     20216     20217     20211     20213     20216     20218
     20211     20213     20216     20219     20212     20211     20213     20214
     20212     20211     20213     20215     20212     20211     20213     20216
     20213     20216     20219     20220     20213     20216     20219     20221
     20213     20216     20219     20222     20214     20213     20216     20217
     20214     20213     20216     20218     20214     20213     20216     20219
     20215     20213     20216     20217     20215     20213     20216     20218
     20215     20213     20216     20219     20216     20219     20222     20223
     20216     20219     20222     20224     20216     20219     20222     20225
     20217     20216     20219     20220     20217     20216     20219     20221
     20217     20216     20219     20222     20218     20216     20219     20220
     20218     20216     20219     20221     20218     20216     20219     20222
     20219     20222     20225     20226     20219     20222     20225     20227
     20219     20222     20225     20228     20220     20219     20222     20223
     20220     20219     20222     20224     20220     20219     20222     20225
     20221     20219     20222     20223     20221     20219     20222     20224
     20221     20219     20222     20225     20223     20222     20225     20226
     20223     20222     20225     20227     20223     20222     20225     20228
     20224     20222     20225     20226     20224     20222     20225     20227
     20224     20222     20225     20228     20229     20232     20235     20236
     20229     20232     20235     20237     20229     20232     20235     20238
     20230     20229     20232     20233     20230     20229     20232     20234
     20230     20229     20232     20235     20231     20229     20232     20233
     20231     20229     20232     20234     20231     20229     20232     20235
     20232     20235     20238     20239     20232     20235     20238     20240
     20232     20235     20238     20241     20233     20232     20235     20236
     20233     20232     20235     20237     20233     20232     20235     20238
     20234     20232     20235     20236     20234     20232     20235     20237
     20234     20232     20235     20238     20235     20238     20241     20242
     20235     20238     20241     20243     20235     20238     20241     20244
     20236     20235     20238     20239     20236     20235     20238     20240
     20236     20235     20238     20241     20237     20235     20238     20239
     20237     20235     20238     20240     20237     20235     20238     20241
     20238     20241     20244     20245     20238     20241     20244     20246
     20238     20241     20244     20247     20239     20238     20241     20242
     20239     20238     20241     20243     20239     20238     20241     20244
     20240     20238     20241     20242     20240     20238     20241     20243
     20240     20238     20241     20244     20241     20244     20247     20248
     20241     20244     20247     20249     20241     20244     20247     20250
     20242     20241     20244     20245     20242     20241     20244     20246
     20242     20241     20244     20247     20243     20241     20244     20245
     20243     20241     20244     20246     20243     20241     20244     20247
     20244     20247     20250     20251     20244     20247     20250     20252
     20244     20247     20250     20253     20245     20244     20247     20248
     20245     20244     20247     20249     20245     20244     20247     20250
     20246     20244     20247     20248     20246     20244     20247     20249
     20246     20244     20247     20250     20247     20250     20253     20254
     20247     20250     20253     20255     20247     20250     20253     20256
     20248     20247     20250     20251     20248     20247     20250     20252
     20248     20247     20250     20253     20249     20247     20250     20251
     20249     20247     20250     20252     20249     20247     20250     20253
     20250     20253     20256     20257     20250     20253     20256     20258
     20250     20253     20256     20259     20251     20250     20253     20254
     20251     20250     20253     20255     20251     20250     20253     20256
     20252     20250     20253     20254     20252     20250     20253     20255
     20252     20250     20253     20256     20253     20256     20259     20260
     20253     20256     20259     20261     20253     20256     20259     20262
     20254     20253     20256     20257     20254     20253     20256     20258
     20254     20253     20256     20259     20255     20253     20256     20257
     20255     20253     20256     20258     20255     20253     20256     20259
     20256     20259     20262     20263     20256     20259     20262     20264
     20256     20259     20262     20265     20257     20256     20259     20260
     20257     20256     20259     20261     20257     20256     20259     20262
     20258     20256     20259     20260     20258     20256     20259     20261
     20258     20256     20259     20262     20259     20262     20265     20266
     20259     20262     20265     20267     20259     20262     20265     20268
     20260     20259     20262     20263     20260     20259     20262     20264
     20260     20259     20262     20265     20261     20259     20262     20263
     20261     20259     20262     20264     20261     20259     20262     20265
     20262     20265     20268     20269     20262     20265     20268     20270
     20262     20265     20268     20271     20263     20262     20265     20266
     20263     20262     20265     20267     20263     20262     20265     20268
     20264     20262     20265     20266     20264     20262     20265     20267
     20264     20262     20265     20268     20265     20268     20271     20272
     20265     20268     20271     20273     20265     20268     20271     20274
     20266     20265     20268     20269     20266     20265     20268     20270
     20266     20265     20268     20271     20267     20265     20268     20269
     20267     20265     20268     20270     20267     20265     20268     20271
     20268     20271     20274     20275     20268     20271     20274     20276
     20268     20271     20274     20277     20269     20268     20271     20272
     20269     20268     20271     20273     20269     20268     20271     20274
     20270     20268     20271     20272     20270     20268     20271     20273
     20270     20268     20271     20274     20272     20271     20274     20275
     20272     20271     20274     20276     20272     20271     20274     20277
     20273     20271     20274     20275     20273     20271     20274     20276
     20273     20271     20274     20277     20278     20282     20285     20286
     20278     20282     20285     20316     20278     20324     20321     20316
     20278     20324     20321     20322     20278     20324     20321     20323
     20279     20278     20280     20281     20279     20278     20282     20283
     20279     20278     20282     20284     20279     20278     20282     20285
     20279     20278     20324     20321     20279     20278     20324     20325
     20279     20278     20324     20326     20280     20278     20282     20283
     20280     20278     20282     20284     20280     20278     20282     20285
     20280     20278     20324     20321     20280     20278     20324     20325
     20280     20278     20324     20326     20281     20280     20278     20282
     20281     20280     20278     20324     20282     20278     20324     20321
     20282     20278     20324     20325     20282     20278     20324     20326
     20282     20285     20286     20287     20282     20285     20286     20288
     20282     20285     20316     20314     20282     20285     20316     20317
     20282     20285     20316     20321     20283     20282     20278     20324
     20283     20282     20285     20286     20283     20282     20285     20316
     20284     20282     20278     20324     20284     20282     20285     20286
     20284     20282     20285     20316     20285     20282     20278     20324
     20285     20286     20288     20289     20285     20286     20288     20290
     20285     20286     20288     20291     20285     20316     20314     20291
     20285     20316     20314     20311     20285     20316     20314     20315
     20285     20316     20317     20318     20285     20316     20317     20319
     20285     20316     20317     20320     20285     20316     20321     20322
     20285     20316     20321     20323     20285     20316     20321     20324
     20286     20285     20316     20314     20286     20285     20316     20317
     20286     20285     20316     20321     20286     20288     20291     20292
     20286     20288     20291     20293     20286     20288     20291     20314
     20287     20286     20285     20316     20287     20286     20288     20289
     20287     20286     20288     20290     20287     20286     20288     20291
     20288     20286     20285     20316     20288     20291     20293     20294
     20288     20291     20293     20295     20288     20291     20293     20303
     20288     20291     20314     20311     20288     20291     20314     20315
     20288     20291     20314     20316     20289     20288     20291     20292
     20289     20288     20291     20293     20289     20288     20291     20314
     20290     20288     20291     20292     20290     20288     20291     20293
     20290     20288     20291     20314     20291     20293     20295     20296
     20291     20293     20295     20297     20291     20293     20295     20298
     20291     20293     20303     20301     20291     20293     20303     20304
     20291     20293     20303     20308     20291     20314     20311     20308
     20291     20314     20311     20312     20291     20314     20311     20313
     20291     20314     20316     20317     20291     20314     20316     20321
     20292     20291     20293     20294     20292     20291     20293     20295
     20292     20291     20293     20303     20292     20291     20314     20311
     20292     20291     20314     20315     20292     20291     20314     20316
     20293     20291     20314     20311     20293     20291     20314     20315
     20293     20291     20314     20316     20293     20295     20298     20299
     20293     20295     20298     20300     20293     20295     20298     20301
     20293     20303     20301     20298     20293     20303     20301     20302
     20293     20303     20301     20327     20293     20303     20304     20305
     20293     20303     20304     20306     20293     20303     20304     20307
     20293     20303     20308     20309     20293     20303     20308     20310
     20293     20303     20308     20311     20294     20293     20291     20314
     20294     20293     20295     20296     20294     20293     20295     20297
     20294     20293     20295     20298     20294     20293     20303     20301
     20294     20293     20303     20304     20294     20293     20303     20308
     20295     20293     20291     20314     20295     20293     20303     20301
     20295     20293     20303     20304     20295     20293     20303     20308
     20295     20298     20301     20302     20295     20298     20301     20303
     20295     20298     20301     20327     20296     20295     20293     20303
     20296     20295     20298     20299     20296     20295     20298     20300
     20296     20295     20298     20301     20297     20295     20293     20303
     20297     20295     20298     20299     20297     20295     20298     20300
     20297     20295     20298     20301     20298     20295     20293     20303
     20298     20301     20303     20304     20298     20301     20303     20308
     20298     20301     20327     20328     20298     20301     20327     20329
     20298     20301     20327     20333     20299     20298     20301     20302
     20299     20298     20301     20303     20299     20298     20301     20327
     20300     20298     20301     20302     20300     20298     20301     20303
     20300     20298     20301     20327     20301     20303     20304     20305
     20301     20303     20304     20306     20301     20303     20304     20307
     20301     20303     20308     20309     20301     20303     20308     20310
     20301     20303     20308     20311     20301     20327     20329     20330
     20301     20327     20329     20331     20301     20327     20329     20332
     20301     20327     20333     20334     20301     20327     20333     20335
     20301     20327     20333     20336     20302     20301     20303     20304
     20302     20301     20303     20308     20302     20301     20327     20328
     20302     20301     20327     20329     20302     20301     20327     20333
     20303     20293     20291     20314     20303     20301     20327     20328
     20303     20301     20327     20329     20303     20301     20327     20333
     20303     20308     20311     20312     20303     20308     20311     20313
     20303     20308     20311     20314     20304     20303     20301     20327
     20304     20303     20308     20309     20304     20303     20308     20310
     20304     20303     20308     20311     20305     20304     20303     20308
     20306     20304     20303     20308     20307     20304     20303     20308
     20308     20303     20301     20327     20308     20311     20314     20315
     20308     20311     20314     20316     20309     20308     20311     20312
     20309     20308     20311     20313     20309     20308     20311     20314
     20310     20308     20311     20312     20310     20308     20311     20313
     20310     20308     20311     20314     20311     20314     20316     20317
     20311     20314     20316     20321     20312     20311     20314     20315
     20312     20311     20314     20316     20313     20311     20314     20315
     20313     20311     20314     20316     20314     20316     20317     20318
     20314     20316     20317     20319     20314     20316     20317     20320
     20314     20316     20321     20322     20314     20316     20321     20323
     20314     20316     20321     20324     20315     20314     20316     20317
     20315     20314     20316     20321     20316     20321     20324     20325
     20316     20321     20324     20326     20317     20316     20321     20322
     20317     20316     20321     20323     20317     20316     20321     20324
     20318     20317     20316     20321     20319     20317     20316     20321
     20320     20317     20316     20321     20322     20321     20324     20325
     20322     20321     20324     20326     20323     20321     20324     20325
     20323     20321     20324     20326     20327     20333     20336     20337
     20327     20333     20336     20338     20327     20333     20336     20339
     20328     20327     20329     20330     20328     20327     20329     20331
     20328     20327     20329     20332     20328     20327     20333     20334
     20328     20327     20333     20335     20328     20327     20333     20336
     20329     20327     20333     20334     20329     20327     20333     20335
     20329     20327     20333     20336     20330     20329     20327     20333
     20331     20329     20327     20333     20332     20329     20327     20333
     20333     20336     20339     20340     20333     20336     20339     20341
     20333     20336     20339     20342     20334     20333     20336     20337
     20334     20333     20336     20338     20334     20333     20336     20339
     20335     20333     20336     20337     20335     20333     20336     20338
     20335     20333     20336     20339     20336     20339     20342     20343
     20336     20339     20342     20344     20336     20339     20342     20348
     20337     20336     20339     20340     20337     20336     20339     20341
     20337     20336     20339     20342     20338     20336     20339     20340
     20338     20336     20339     20341     20338     20336     20339     20342
     20339     20342     20344     20345     20339     20342     20344     20346
     20339     20342     20344     20347     20339     20342     20348     20349
     20339     20342     20348     20350     20339     20342     20348     20351
     20340     20339     20342     20343     20340     20339     20342     20344
     20340     20339     20342     20348     20341     20339     20342     20343
     20341     20339     20342     20344     20341     20339     20342     20348
     20343     20342     20344     20345     20343     20342     20344     20346
     20343     20342     20344     20347     20343     20342     20348     20349
     20343     20342     20348     20350     20343     20342     20348     20351
     20344     20342     20348     20349     20344     20342     20348     20350
     20344     20342     20348     20351     20345     20344     20342     20348
     20346     20344     20342     20348     20347     20344     20342     20348
     20352     20356     20359     20360     20352     20356     20359     20390
     20352     20398     20395     20390     20352     20398     20395     20396
     20352     20398     20395     20397     20353     20352     20354     20355
     20353     20352     20356     20357     20353     20352     20356     20358
     20353     20352     20356     20359     20353     20352     20398     20395
     20353     20352     20398     20399     20353     20352     20398     20400
     20354     20352     20356     20357     20354     20352     20356     20358
     20354     20352     20356     20359     20354     20352     20398     20395
     20354     20352     20398     20399     20354     20352     20398     20400
     20355     20354     20352     20356     20355     20354     20352     20398
     20356     20352     20398     20395     20356     20352     20398     20399
     20356     20352     20398     20400     20356     20359     20360     20361
     20356     20359     20360     20362     20356     20359     20390     20388
     20356     20359     20390     20391     20356     20359     20390     20395
     20357     20356     20352     20398     20357     20356     20359     20360
     20357     20356     20359     20390     20358     20356     20352     20398
     20358     20356     20359     20360     20358     20356     20359     20390
     20359     20356     20352     20398     20359     20360     20362     20363
     20359     20360     20362     20364     20359     20360     20362     20365
     20359     20390     20388     20365     20359     20390     20388     20385
     20359     20390     20388     20389     20359     20390     20391     20392
     20359     20390     20391     20393     20359     20390     20391     20394
     20359     20390     20395     20396     20359     20390     20395     20397
     20359     20390     20395     20398     20360     20359     20390     20388
     20360     20359     20390     20391     20360     20359     20390     20395
     20360     20362     20365     20366     20360     20362     20365     20367
     20360     20362     20365     20388     20361     20360     20359     20390
     20361     20360     20362     20363     20361     20360     20362     20364
     20361     20360     20362     20365     20362     20360     20359     20390
     20362     20365     20367     20368     20362     20365     20367     20369
     20362     20365     20367     20377     20362     20365     20388     20385
     20362     20365     20388     20389     20362     20365     20388     20390
     20363     20362     20365     20366     20363     20362     20365     20367
     20363     20362     20365     20388     20364     20362     20365     20366
     20364     20362     20365     20367     20364     20362     20365     20388
     20365     20367     20369     20370     20365     20367     20369     20371
     20365     20367     20369     20372     20365     20367     20377     20375
     20365     20367     20377     20378     20365     20367     20377     20382
     20365     20388     20385     20382     20365     20388     20385     20386
     20365     20388     20385     20387     20365     20388     20390     20391
     20365     20388     20390     20395     20366     20365     20367     20368
     20366     20365     20367     20369     20366     20365     20367     20377
     20366     20365     20388     20385     20366     20365     20388     20389
     20366     20365     20388     20390     20367     20365     20388     20385
     20367     20365     20388     20389     20367     20365     20388     20390
     20367     20369     20372     20373     20367     20369     20372     20374
     20367     20369     20372     20375     20367     20377     20375     20372
     20367     20377     20375     20376     20367     20377     20375     20401
     20367     20377     20378     20379     20367     20377     20378     20380
     20367     20377     20378     20381     20367     20377     20382     20383
     20367     20377     20382     20384     20367     20377     20382     20385
     20368     20367     20365     20388     20368     20367     20369     20370
     20368     20367     20369     20371     20368     20367     20369     20372
     20368     20367     20377     20375     20368     20367     20377     20378
     20368     20367     20377     20382     20369     20367     20365     20388
     20369     20367     20377     20375     20369     20367     20377     20378
     20369     20367     20377     20382     20369     20372     20375     20376
     20369     20372     20375     20377     20369     20372     20375     20401
     20370     20369     20367     20377     20370     20369     20372     20373
     20370     20369     20372     20374     20370     20369     20372     20375
     20371     20369     20367     20377     20371     20369     20372     20373
     20371     20369     20372     20374     20371     20369     20372     20375
     20372     20369     20367     20377     20372     20375     20377     20378
     20372     20375     20377     20382     20372     20375     20401     20402
     20372     20375     20401     20403     20372     20375     20401     20407
     20373     20372     20375     20376     20373     20372     20375     20377
     20373     20372     20375     20401     20374     20372     20375     20376
     20374     20372     20375     20377     20374     20372     20375     20401
     20375     20377     20378     20379     20375     20377     20378     20380
     20375     20377     20378     20381     20375     20377     20382     20383
     20375     20377     20382     20384     20375     20377     20382     20385
     20375     20401     20403     20404     20375     20401     20403     20405
     20375     20401     20403     20406     20375     20401     20407     20408
     20375     20401     20407     20409     20375     20401     20407     20410
     20376     20375     20377     20378     20376     20375     20377     20382
     20376     20375     20401     20402     20376     20375     20401     20403
     20376     20375     20401     20407     20377     20367     20365     20388
     20377     20375     20401     20402     20377     20375     20401     20403
     20377     20375     20401     20407     20377     20382     20385     20386
     20377     20382     20385     20387     20377     20382     20385     20388
     20378     20377     20375     20401     20378     20377     20382     20383
     20378     20377     20382     20384     20378     20377     20382     20385
     20379     20378     20377     20382     20380     20378     20377     20382
     20381     20378     20377     20382     20382     20377     20375     20401
     20382     20385     20388     20389     20382     20385     20388     20390
     20383     20382     20385     20386     20383     20382     20385     20387
     20383     20382     20385     20388     20384     20382     20385     20386
     20384     20382     20385     20387     20384     20382     20385     20388
     20385     20388     20390     20391     20385     20388     20390     20395
     20386     20385     20388     20389     20386     20385     20388     20390
     20387     20385     20388     20389     20387     20385     20388     20390
     20388     20390     20391     20392     20388     20390     20391     20393
     20388     20390     20391     20394     20388     20390     20395     20396
     20388     20390     20395     20397     20388     20390     20395     20398
     20389     20388     20390     20391     20389     20388     20390     20395
     20390     20395     20398     20399     20390     20395     20398     20400
     20391     20390     20395     20396     20391     20390     20395     20397
     20391     20390     20395     20398     20392     20391     20390     20395
     20393     20391     20390     20395     20394     20391     20390     20395
     20396     20395     20398     20399     20396     20395     20398     20400
     20397     20395     20398     20399     20397     20395     20398     20400
     20401     20407     20410     20411     20401     20407     20410     20412
     20401     20407     20410     20413     20402     20401     20403     20404
     20402     20401     20403     20405     20402     20401     20403     20406
     20402     20401     20407     20408     20402     20401     20407     20409
     20402     20401     20407     20410     20403     20401     20407     20408
     20403     20401     20407     20409     20403     20401     20407     20410
     20404     20403     20401     20407     20405     20403     20401     20407
     20406     20403     20401     20407     20407     20410     20413     20414
     20407     20410     20413     20415     20407     20410     20413     20416
     20408     20407     20410     20411     20408     20407     20410     20412
     20408     20407     20410     20413     20409     20407     20410     20411
     20409     20407     20410     20412     20409     20407     20410     20413
     20410     20413     20416     20417     20410     20413     20416     20418
     20410     20413     20416     20422     20411     20410     20413     20414
     20411     20410     20413     20415     20411     20410     20413     20416
     20412     20410     20413     20414     20412     20410     20413     20415
     20412     20410     20413     20416     20413     20416     20418     20419
     20413     20416     20418     20420     20413     20416     20418     20421
     20413     20416     20422     20423     20413     20416     20422     20424
     20413     20416     20422     20425     20414     20413     20416     20417
     20414     20413     20416     20418     20414     20413     20416     20422
     20415     20413     20416     20417     20415     20413     20416     20418
     20415     20413     20416     20422     20417     20416     20418     20419
     20417     20416     20418     20420     20417     20416     20418     20421
     20417     20416     20422     20423     20417     20416     20422     20424
     20417     20416     20422     20425     20418     20416     20422     20423
     20418     20416     20422     20424     20418     20416     20422     20425
     20419     20418     20416     20422     20420     20418     20416     20422
     20421     20418     20416     20422     20426     20430     20433     20434
     20426     20430     20433     20435     20426     20430     20433     20439
     20427     20426     20430     20431     20427     20426     20430     20432
     20427     20426     20430     20433     20428     20426     20430     20431
     20428     20426     20430     20432     20428     20426     20430     20433
     20429     20426     20430     20431     20429     20426     20430     20432
     20429     20426     20430     20433     20430     20433     20439     20436
     20431     20430     20433     20434     20431     20430     20433     20435
     20431     20430     20433     20439     20432     20430     20433     20434
     20432     20430     20433     20435     20432     20430     20433     20439
     20433     20439     20436     20437     20433     20439     20436     20438
     20433     20439     20436     20440     20434     20433     20439     20436
     20435     20433     20439     20436     20436     20440     20441     20442
     20436     20440     20441     20443     20436     20440     20441     20444
     20437     20436     20440     20441     20438     20436     20440     20441
     20439     20436     20440     20441     20440     20441     20444     20445
     20440     20441     20444     20446     20440     20441     20444     20452
     20441     20444     20446     20447     20441     20444     20452     20453
     20441     20444     20452     20454     20441     20444     20452     20455
     20442     20441     20444     20445     20442     20441     20444     20446
     20442     20441     20444     20452     20443     20441     20444     20445
     20443     20441     20444     20446     20443     20441     20444     20452
     20444     20446     20447     20448     20444     20446     20447     20449
     20444     20452     20455     20456     20445     20444     20446     20447
     20445     20444     20452     20453     20445     20444     20452     20454
     20445     20444     20452     20455     20446     20444     20452     20453
     20446     20444     20452     20454     20446     20444     20452     20455
     20446     20447     20449     20450     20446     20447     20449     20451
     20446     20447     20449     20461     20447     20446     20444     20452
     20447     20449     20461     20462     20447     20449     20461     20463
     20447     20449     20461     20464     20448     20447     20449     20450
     20448     20447     20449     20451     20448     20447     20449     20461
     20449     20461     20464     20465     20449     20461     20464     20466
     20449     20461     20464     20467     20450     20449     20461     20462
     20450     20449     20461     20463     20450     20449     20461     20464
     20451     20449     20461     20462     20451     20449     20461     20463
     20451     20449     20461     20464     20452     20455     20456     20457
     20452     20455     20456     20458     20453     20452     20455     20456
     20454     20452     20455     20456     20455     20456     20458     20459
     20455     20456     20458     20460     20455     20456     20458     20508
     20456     20458     20508     20509     20456     20458     20508     20510
     20456     20458     20508     20511     20457     20456     20458     20459
     20457     20456     20458     20460     20457     20456     20458     20508
     20458     20508     20511     20512     20458     20508     20511     20513
     20458     20508     20511     20514     20459     20458     20508     20509
     20459     20458     20508     20510     20459     20458     20508     20511
     20460     20458     20508     20509     20460     20458     20508     20510
     20460     20458     20508     20511     20461     20464     20467     20468
     20461     20464     20467     20469     20462     20461     20464     20465
     20462     20461     20464     20466     20462     20461     20464     20467
     20463     20461     20464     20465     20463     20461     20464     20466
     20463     20461     20464     20467     20464     20467     20469     20470
     20464     20467     20469     20471     20465     20464     20467     20468
     20465     20464     20467     20469     20466     20464     20467     20468
     20466     20464     20467     20469     20467     20469     20471     20472
     20467     20469     20471     20473     20467     20469     20471     20474
     20468     20467     20469     20470     20468     20467     20469     20471
     20469     20471     20474     20475     20469     20471     20474     20476
     20470     20469     20471     20472     20470     20469     20471     20473
     20470     20469     20471     20474     20471     20474     20476     20477
     20471     20474     20476     20478     20472     20471     20474     20475
     20472     20471     20474     20476     20473     20471     20474     20475
     20473     20471     20474     20476     20474     20476     20478     20479
     20474     20476     20478     20480     20474     20476     20478     20481
     20475     20474     20476     20477     20475     20474     20476     20478
     20476     20478     20481     20482     20476     20478     20481     20483
     20477     20476     20478     20479     20477     20476     20478     20480
     20477     20476     20478     20481     20478     20481     20483     20484
     20478     20481     20483     20485     20479     20478     20481     20482
     20479     20478     20481     20483     20480     20478     20481     20482
     20480     20478     20481     20483     20481     20483     20485     20486
     20481     20483     20485     20487     20481     20483     20485     20488
     20482     20481     20483     20484     20482     20481     20483     20485
     20483     20485     20488     20489     20483     20485     20488     20490
     20484     20483     20485     20486     20484     20483     20485     20487
     20484     20483     20485     20488     20485     20488     20490     20491
     20485     20488     20490     20492     20486     20485     20488     20489
     20486     20485     20488     20490     20487     20485     20488     20489
     20487     20485     20488     20490     20488     20490     20492     20493
     20488     20490     20492     20494     20488     20490     20492     20495
     20489     20488     20490     20491     20489     20488     20490     20492
     20490     20492     20495     20496     20490     20492     20495     20497
     20490     20492     20495     20498     20491     20490     20492     20493
     20491     20490     20492     20494     20491     20490     20492     20495
     20492     20495     20498     20499     20492     20495     20498     20500
     20492     20495     20498     20501     20493     20492     20495     20496
     20493     20492     20495     20497     20493     20492     20495     20498
     20494     20492     20495     20496     20494     20492     20495     20497
     20494     20492     20495     20498     20495     20498     20501     20502
     20495     20498     20501     20503     20495     20498     20501     20504
     20496     20495     20498     20499     20496     20495     20498     20500
     20496     20495     20498     20501     20497     20495     20498     20499
     20497     20495     20498     20500     20497     20495     20498     20501
     20498     20501     20504     20505     20498     20501     20504     20506
     20498     20501     20504     20507     20499     20498     20501     20502
     20499     20498     20501     20503     20499     20498     20501     20504
     20500     20498     20501     20502     20500     20498     20501     20503
     20500     20498     20501     20504     20502     20501     20504     20505
     20502     20501     20504     20506     20502     20501     20504     20507
     20503     20501     20504     20505     20503     20501     20504     20506
     20503     20501     20504     20507     20508     20511     20514     20515
     20508     20511     20514     20516     20508     20511     20514     20517
     20509     20508     20511     20512     20509     20508     20511     20513
     20509     20508     20511     20514     20510     20508     20511     20512
     20510     20508     20511     20513     20510     20508     20511     20514
     20511     20514     20517     20518     20511     20514     20517     20519
     20511     20514     20517     20520     20512     20511     20514     20515
     20512     20511     20514     20516     20512     20511     20514     20517
     20513     20511     20514     20515     20513     20511     20514     20516
     20513     20511     20514     20517     20514     20517     20520     20521
     20514     20517     20520     20522     20514     20517     20520     20523
     20515     20514     20517     20518     20515     20514     20517     20519
     20515     20514     20517     20520     20516     20514     20517     20518
     20516     20514     20517     20519     20516     20514     20517     20520
     20517     20520     20523     20524     20517     20520     20523     20525
     20517     20520     20523     20526     20518     20517     20520     20521
     20518     20517     20520     20522     20518     20517     20520     20523
     20519     20517     20520     20521     20519     20517     20520     20522
     20519     20517     20520     20523     20520     20523     20526     20527
     20520     20523     20526     20528     20520     20523     20526     20529
     20521     20520     20523     20524     20521     20520     20523     20525
     20521     20520     20523     20526     20522     20520     20523     20524
     20522     20520     20523     20525     20522     20520     20523     20526
     20523     20526     20529     20530     20523     20526     20529     20531
     20523     20526     20529     20532     20524     20523     20526     20527
     20524     20523     20526     20528     20524     20523     20526     20529
     20525     20523     20526     20527     20525     20523     20526     20528
     20525     20523     20526     20529     20526     20529     20532     20533
     20526     20529     20532     20534     20526     20529     20532     20535
     20527     20526     20529     20530     20527     20526     20529     20531
     20527     20526     20529     20532     20528     20526     20529     20530
     20528     20526     20529     20531     20528     20526     20529     20532
     20529     20532     20535     20536     20529     20532     20535     20537
     20529     20532     20535     20538     20530     20529     20532     20533
     20530     20529     20532     20534     20530     20529     20532     20535
     20531     20529     20532     20533     20531     20529     20532     20534
     20531     20529     20532     20535     20532     20535     20538     20539
     20532     20535     20538     20540     20532     20535     20538     20541
     20533     20532     20535     20536     20533     20532     20535     20537
     20533     20532     20535     20538     20534     20532     20535     20536
     20534     20532     20535     20537     20534     20532     20535     20538
     20535     20538     20541     20542     20535     20538     20541     20543
     20535     20538     20541     20544     20536     20535     20538     20539
     20536     20535     20538     20540     20536     20535     20538     20541
     20537     20535     20538     20539     20537     20535     20538     20540
     20537     20535     20538     20541     20538     20541     20544     20545
     20538     20541     20544     20546     20538     20541     20544     20547
     20539     20538     20541     20542     20539     20538     20541     20543
     20539     20538     20541     20544     20540     20538     20541     20542
     20540     20538     20541     20543     20540     20538     20541     20544
     20541     20544     20547     20548     20541     20544     20547     20549
     20541     20544     20547     20550     20542     20541     20544     20545
     20542     20541     20544     20546     20542     20541     20544     20547
     20543     20541     20544     20545     20543     20541     20544     20546
     20543     20541     20544     20547     20544     20547     20550     20551
     20544     20547     20550     20552     20544     20547     20550     20553
     20545     20544     20547     20548     20545     20544     20547     20549
     20545     20544     20547     20550     20546     20544     20547     20548
     20546     20544     20547     20549     20546     20544     20547     20550
     20547     20550     20553     20554     20547     20550     20553     20555
     20547     20550     20553     20556     20548     20547     20550     20551
     20548     20547     20550     20552     20548     20547     20550     20553
     20549     20547     20550     20551     20549     20547     20550     20552
     20549     20547     20550     20553     20551     20550     20553     20554
     20551     20550     20553     20555     20551     20550     20553     20556
     20552     20550     20553     20554     20552     20550     20553     20555
     20552     20550     20553     20556     20557     20570     20573     20574
     20557     20570     20573     20575     20557     20570     20573     20579
     20558     20557     20562     20563     20558     20557     20562     20564
     20558     20557     20562     20565     20558     20557     20566     20567
     20558     20557     20566     20568     20558     20557     20566     20569
     20558     20557     20570     20571     20558     20557     20570     20572
     20558     20557     20570     20573     20559     20558     20557     20562
     20559     20558     20557     20566     20559     20558     20557     20570
     20560     20558     20557     20562     20560     20558     20557     20566
     20560     20558     20557     20570     20561     20558     20557     20562
     20561     20558     20557     20566     20561     20558     20557     20570
     20562     20557     20566     20567     20562     20557     20566     20568
     20562     20557     20566     20569     20562     20557     20570     20571
     20562     20557     20570     20572     20562     20557     20570     20573
     20563     20562     20557     20566     20563     20562     20557     20570
     20564     20562     20557     20566     20564     20562     20557     20570
     20565     20562     20557     20566     20565     20562     20557     20570
     20566     20557     20570     20571     20566     20557     20570     20572
     20566     20557     20570     20573     20567     20566     20557     20570
     20568     20566     20557     20570     20569     20566     20557     20570
     20570     20573     20579     20576     20571     20570     20573     20574
     20571     20570     20573     20575     20571     20570     20573     20579
     20572     20570     20573     20574     20572     20570     20573     20575
     20572     20570     20573     20579     20573     20579     20576     20577
     20573     20579     20576     20578     20573     20579     20576     20580
     20574     20573     20579     20576     20575     20573     20579     20576
     20576     20580     20581     20582     20576     20580     20581     20583
     20576     20580     20581     20584     20577     20576     20580     20581
     20578     20576     20580     20581     20579     20576     20580     20581
     20580     20581     20584     20585     20580     20581     20584     20586
     20580     20581     20584     20592     20581     20584     20586     20587
     20581     20584     20592     20593     20581     20584     20592     20594
     20581     20584     20592     20595     20582     20581     20584     20585
     20582     20581     20584     20586     20582     20581     20584     20592
     20583     20581     20584     20585     20583     20581     20584     20586
     20583     20581     20584     20592     20584     20586     20587     20588
     20584     20586     20587     20589     20584     20592     20595     20596
     20585     20584     20586     20587     20585     20584     20592     20593
     20585     20584     20592     20594     20585     20584     20592     20595
     20586     20584     20592     20593     20586     20584     20592     20594
     20586     20584     20592     20595     20586     20587     20589     20590
     20586     20587     20589     20591     20586     20587     20589     20601
     20587     20586     20584     20592     20587     20589     20601     20602
     20587     20589     20601     20603     20587     20589     20601     20604
     20588     20587     20589     20590     20588     20587     20589     20591
     20588     20587     20589     20601     20589     20601     20604     20605
     20589     20601     20604     20606     20589     20601     20604     20607
     20590     20589     20601     20602     20590     20589     20601     20603
     20590     20589     20601     20604     20591     20589     20601     20602
     20591     20589     20601     20603     20591     20589     20601     20604
     20592     20595     20596     20597     20592     20595     20596     20598
     20593     20592     20595     20596     20594     20592     20595     20596
     20595     20596     20598     20599     20595     20596     20598     20600
     20595     20596     20598     20646     20596     20598     20646     20647
     20596     20598     20646     20648     20596     20598     20646     20649
     20597     20596     20598     20599     20597     20596     20598     20600
     20597     20596     20598     20646     20598     20646     20649     20650
     20598     20646     20649     20651     20598     20646     20649     20652
     20599     20598     20646     20647     20599     20598     20646     20648
     20599     20598     20646     20649     20600     20598     20646     20647
     20600     20598     20646     20648     20600     20598     20646     20649
     20601     20604     20607     20608     20601     20604     20607     20609
     20601     20604     20607     20610     20602     20601     20604     20605
     20602     20601     20604     20606     20602     20601     20604     20607
     20603     20601     20604     20605     20603     20601     20604     20606
     20603     20601     20604     20607     20604     20607     20610     20611
     20604     20607     20610     20612     20604     20607     20610     20613
     20605     20604     20607     20608     20605     20604     20607     20609
     20605     20604     20607     20610     20606     20604     20607     20608
     20606     20604     20607     20609     20606     20604     20607     20610
     20607     20610     20613     20614     20607     20610     20613     20615
     20607     20610     20613     20616     20608     20607     20610     20611
     20608     20607     20610     20612     20608     20607     20610     20613
     20609     20607     20610     20611     20609     20607     20610     20612
     20609     20607     20610     20613     20610     20613     20616     20617
     20610     20613     20616     20618     20610     20613     20616     20619
     20611     20610     20613     20614     20611     20610     20613     20615
     20611     20610     20613     20616     20612     20610     20613     20614
     20612     20610     20613     20615     20612     20610     20613     20616
     20613     20616     20619     20620     20613     20616     20619     20621
     20614     20613     20616     20617     20614     20613     20616     20618
     20614     20613     20616     20619     20615     20613     20616     20617
     20615     20613     20616     20618     20615     20613     20616     20619
     20616     20619     20621     20622     20616     20619     20621     20623
     20617     20616     20619     20620     20617     20616     20619     20621
     20618     20616     20619     20620     20618     20616     20619     20621
     20619     20621     20623     20624     20619     20621     20623     20625
     20619     20621     20623     20626     20620     20619     20621     20622
     20620     20619     20621     20623     20621     20623     20626     20627
     20621     20623     20626     20628     20622     20621     20623     20624
     20622     20621     20623     20625     20622     20621     20623     20626
     20623     20626     20628     20629     20623     20626     20628     20630
     20624     20623     20626     20627     20624     20623     20626     20628
     20625     20623     20626     20627     20625     20623     20626     20628
     20626     20628     20630     20631     20626     20628     20630     20632
     20626     20628     20630     20633     20627     20626     20628     20629
     20627     20626     20628     20630     20628     20630     20633     20634
     20628     20630     20633     20635     20628     20630     20633     20636
     20629     20628     20630     20631     20629     20628     20630     20632
     20629     20628     20630     20633     20630     20633     20636     20637
     20630     20633     20636     20638     20630     20633     20636     20639
     20631     20630     20633     20634     20631     20630     20633     20635
     20631     20630     20633     20636     20632     20630     20633     20634
     20632     20630     20633     20635     20632     20630     20633     20636
     20633     20636     20639     20640     20633     20636     20639     20641
     20633     20636     20639     20642     20634     20633     20636     20637
     20634     20633     20636     20638     20634     20633     20636     20639
     20635     20633     20636     20637     20635     20633     20636     20638
     20635     20633     20636     20639     20636     20639     20642     20643
     20636     20639     20642     20644     20636     20639     20642     20645
     20637     20636     20639     20640     20637     20636     20639     20641
     20637     20636     20639     20642     20638     20636     20639     20640
     20638     20636     20639     20641     20638     20636     20639     20642
     20640     20639     20642     20643     20640     20639     20642     20644
     20640     20639     20642     20645     20641     20639     20642     20643
     20641     20639     20642     20644     20641     20639     20642     20645
     20646     20649     20652     20653     20646     20649     20652     20654
     20646     20649     20652     20655     20647     20646     20649     20650
     20647     20646     20649     20651     20647     20646     20649     20652
     20648     20646     20649     20650     20648     20646     20649     20651
     20648     20646     20649     20652     20649     20652     20655     20656
     20649     20652     20655     20657     20649     20652     20655     20658
     20650     20649     20652     20653     20650     20649     20652     20654
     20650     20649     20652     20655     20651     20649     20652     20653
     20651     20649     20652     20654     20651     20649     20652     20655
     20652     20655     20658     20659     20652     20655     20658     20660
     20652     20655     20658     20661     20653     20652     20655     20656
     20653     20652     20655     20657     20653     20652     20655     20658
     20654     20652     20655     20656     20654     20652     20655     20657
     20654     20652     20655     20658     20655     20658     20661     20662
     20655     20658     20661     20663     20655     20658     20661     20664
     20656     20655     20658     20659     20656     20655     20658     20660
     20656     20655     20658     20661     20657     20655     20658     20659
     20657     20655     20658     20660     20657     20655     20658     20661
     20658     20661     20664     20665     20658     20661     20664     20666
     20658     20661     20664     20667     20659     20658     20661     20662
     20659     20658     20661     20663     20659     20658     20661     20664
     20660     20658     20661     20662     20660     20658     20661     20663
     20660     20658     20661     20664     20661     20664     20667     20668
     20661     20664     20667     20669     20661     20664     20667     20670
     20662     20661     20664     20665     20662     20661     20664     20666
     20662     20661     20664     20667     20663     20661     20664     20665
     20663     20661     20664     20666     20663     20661     20664     20667
     20664     20667     20670     20671     20664     20667     20670     20672
     20664     20667     20670     20673     20665     20664     20667     20668
     20665     20664     20667     20669     20665     20664     20667     20670
     20666     20664     20667     20668     20666     20664     20667     20669
     20666     20664     20667     20670     20667     20670     20673     20674
     20667     20670     20673     20675     20667     20670     20673     20676
     20668     20667     20670     20671     20668     20667     20670     20672
     20668     20667     20670     20673     20669     20667     20670     20671
     20669     20667     20670     20672     20669     20667     20670     20673
     20670     20673     20676     20677     20670     20673     20676     20678
     20670     20673     20676     20679     20671     20670     20673     20674
     20671     20670     20673     20675     20671     20670     20673     20676
     20672     20670     20673     20674     20672     20670     20673     20675
     20672     20670     20673     20676     20673     20676     20679     20680
     20673     20676     20679     20681     20673     20676     20679     20682
     20674     20673     20676     20677     20674     20673     20676     20678
     20674     20673     20676     20679     20675     20673     20676     20677
     20675     20673     20676     20678     20675     20673     20676     20679
     20676     20679     20682     20683     20676     20679     20682     20684
     20676     20679     20682     20685     20677     20676     20679     20680
     20677     20676     20679     20681     20677     20676     20679     20682
     20678     20676     20679     20680     20678     20676     20679     20681
     20678     20676     20679     20682     20679     20682     20685     20686
     20679     20682     20685     20687     20679     20682     20685     20688
     20680     20679     20682     20683     20680     20679     20682     20684
     20680     20679     20682     20685     20681     20679     20682     20683
     20681     20679     20682     20684     20681     20679     20682     20685
     20682     20685     20688     20689     20682     20685     20688     20690
     20682     20685     20688     20691     20683     20682     20685     20686
     20683     20682     20685     20687     20683     20682     20685     20688
     20684     20682     20685     20686     20684     20682     20685     20687
     20684     20682     20685     20688     20685     20688     20691     20692
     20685     20688     20691     20693     20685     20688     20691     20694
     20686     20685     20688     20689     20686     20685     20688     20690
     20686     20685     20688     20691     20687     20685     20688     20689
     20687     20685     20688     20690     20687     20685     20688     20691
     20689     20688     20691     20692     20689     20688     20691     20693
     20689     20688     20691     20694     20690     20688     20691     20692
     20690     20688     20691     20693     20690     20688     20691     20694
     20695     20699     20702     20703     20695     20699     20702     20733
     20695     20741     20738     20733     20695     20741     20738     20739
     20695     20741     20738     20740     20696     20695     20697     20698
     20696     20695     20699     20700     20696     20695     20699     20701
     20696     20695     20699     20702     20696     20695     20741     20738
     20696     20695     20741     20742     20696     20695     20741     20743
     20697     20695     20699     20700     20697     20695     20699     20701
     20697     20695     20699     20702     20697     20695     20741     20738
     20697     20695     20741     20742     20697     20695     20741     20743
     20698     20697     20695     20699     20698     20697     20695     20741
     20699     20695     20741     20738     20699     20695     20741     20742
     20699     20695     20741     20743     20699     20702     20703     20704
     20699     20702     20703     20705     20699     20702     20733     20731
     20699     20702     20733     20734     20699     20702     20733     20738
     20700     20699     20695     20741     20700     20699     20702     20703
     20700     20699     20702     20733     20701     20699     20695     20741
     20701     20699     20702     20703     20701     20699     20702     20733
     20702     20699     20695     20741     20702     20703     20705     20706
     20702     20703     20705     20707     20702     20703     20705     20708
     20702     20733     20731     20708     20702     20733     20731     20728
     20702     20733     20731     20732     20702     20733     20734     20735
     20702     20733     20734     20736     20702     20733     20734     20737
     20702     20733     20738     20739     20702     20733     20738     20740
     20702     20733     20738     20741     20703     20702     20733     20731
     20703     20702     20733     20734     20703     20702     20733     20738
     20703     20705     20708     20709     20703     20705     20708     20710
     20703     20705     20708     20731     20704     20703     20702     20733
     20704     20703     20705     20706     20704     20703     20705     20707
     20704     20703     20705     20708     20705     20703     20702     20733
     20705     20708     20710     20711     20705     20708     20710     20712
     20705     20708     20710     20720     20705     20708     20731     20728
     20705     20708     20731     20732     20705     20708     20731     20733
     20706     20705     20708     20709     20706     20705     20708     20710
     20706     20705     20708     20731     20707     20705     20708     20709
     20707     20705     20708     20710     20707     20705     20708     20731
     20708     20710     20712     20713     20708     20710     20712     20714
     20708     20710     20712     20715     20708     20710     20720     20718
     20708     20710     20720     20721     20708     20710     20720     20725
     20708     20731     20728     20725     20708     20731     20728     20729
     20708     20731     20728     20730     20708     20731     20733     20734
     20708     20731     20733     20738     20709     20708     20710     20711
     20709     20708     20710     20712     20709     20708     20710     20720
     20709     20708     20731     20728     20709     20708     20731     20732
     20709     20708     20731     20733     20710     20708     20731     20728
     20710     20708     20731     20732     20710     20708     20731     20733
     20710     20712     20715     20716     20710     20712     20715     20717
     20710     20712     20715     20718     20710     20720     20718     20715
     20710     20720     20718     20719     20710     20720     20718     20744
     20710     20720     20721     20722     20710     20720     20721     20723
     20710     20720     20721     20724     20710     20720     20725     20726
     20710     20720     20725     20727     20710     20720     20725     20728
     20711     20710     20708     20731     20711     20710     20712     20713
     20711     20710     20712     20714     20711     20710     20712     20715
     20711     20710     20720     20718     20711     20710     20720     20721
     20711     20710     20720     20725     20712     20710     20708     20731
     20712     20710     20720     20718     20712     20710     20720     20721
     20712     20710     20720     20725     20712     20715     20718     20719
     20712     20715     20718     20720     20712     20715     20718     20744
     20713     20712     20710     20720     20713     20712     20715     20716
     20713     20712     20715     20717     20713     20712     20715     20718
     20714     20712     20710     20720     20714     20712     20715     20716
     20714     20712     20715     20717     20714     20712     20715     20718
     20715     20712     20710     20720     20715     20718     20720     20721
     20715     20718     20720     20725     20715     20718     20744     20745
     20715     20718     20744     20746     20715     20718     20744     20750
     20716     20715     20718     20719     20716     20715     20718     20720
     20716     20715     20718     20744     20717     20715     20718     20719
     20717     20715     20718     20720     20717     20715     20718     20744
     20718     20720     20721     20722     20718     20720     20721     20723
     20718     20720     20721     20724     20718     20720     20725     20726
     20718     20720     20725     20727     20718     20720     20725     20728
     20718     20744     20746     20747     20718     20744     20746     20748
     20718     20744     20746     20749     20718     20744     20750     20751
     20718     20744     20750     20752     20718     20744     20750     20753
     20719     20718     20720     20721     20719     20718     20720     20725
     20719     20718     20744     20745     20719     20718     20744     20746
     20719     20718     20744     20750     20720     20710     20708     20731
     20720     20718     20744     20745     20720     20718     20744     20746
     20720     20718     20744     20750     20720     20725     20728     20729
     20720     20725     20728     20730     20720     20725     20728     20731
     20721     20720     20718     20744     20721     20720     20725     20726
     20721     20720     20725     20727     20721     20720     20725     20728
     20722     20721     20720     20725     20723     20721     20720     20725
     20724     20721     20720     20725     20725     20720     20718     20744
     20725     20728     20731     20732     20725     20728     20731     20733
     20726     20725     20728     20729     20726     20725     20728     20730
     20726     20725     20728     20731     20727     20725     20728     20729
     20727     20725     20728     20730     20727     20725     20728     20731
     20728     20731     20733     20734     20728     20731     20733     20738
     20729     20728     20731     20732     20729     20728     20731     20733
     20730     20728     20731     20732     20730     20728     20731     20733
     20731     20733     20734     20735     20731     20733     20734     20736
     20731     20733     20734     20737     20731     20733     20738     20739
     20731     20733     20738     20740     20731     20733     20738     20741
     20732     20731     20733     20734     20732     20731     20733     20738
     20733     20738     20741     20742     20733     20738     20741     20743
     20734     20733     20738     20739     20734     20733     20738     20740
     20734     20733     20738     20741     20735     20734     20733     20738
     20736     20734     20733     20738     20737     20734     20733     20738
     20739     20738     20741     20742     20739     20738     20741     20743
     20740     20738     20741     20742     20740     20738     20741     20743
     20744     20750     20753     20754     20744     20750     20753     20755
     20744     20750     20753     20756     20745     20744     20746     20747
     20745     20744     20746     20748     20745     20744     20746     20749
     20745     20744     20750     20751     20745     20744     20750     20752
     20745     20744     20750     20753     20746     20744     20750     20751
     20746     20744     20750     20752     20746     20744     20750     20753
     20747     20746     20744     20750     20748     20746     20744     20750
     20749     20746     20744     20750     20750     20753     20756     20757
     20750     20753     20756     20758     20750     20753     20756     20759
     20751     20750     20753     20754     20751     20750     20753     20755
     20751     20750     20753     20756     20752     20750     20753     20754
     20752     20750     20753     20755     20752     20750     20753     20756
     20753     20756     20759     20760     20753     20756     20759     20761
     20753     20756     20759     20765     20754     20753     20756     20757
     20754     20753     20756     20758     20754     20753     20756     20759
     20755     20753     20756     20757     20755     20753     20756     20758
     20755     20753     20756     20759     20756     20759     20761     20762
     20756     20759     20761     20763     20756     20759     20761     20764
     20756     20759     20765     20766     20756     20759     20765     20767
     20756     20759     20765     20768     20757     20756     20759     20760
     20757     20756     20759     20761     20757     20756     20759     20765
     20758     20756     20759     20760     20758     20756     20759     20761
     20758     20756     20759     20765     20760     20759     20761     20762
     20760     20759     20761     20763     20760     20759     20761     20764
     20760     20759     20765     20766     20760     20759     20765     20767
     20760     20759     20765     20768     20761     20759     20765     20766
     20761     20759     20765     20767     20761     20759     20765     20768
     20762     20761     20759     20765     20763     20761     20759     20765
     20764     20761     20759     20765     20769     20773     20776     20777
     20769     20773     20776     20778     20769     20773     20776     20782
     20770     20769     20773     20774     20770     20769     20773     20775
     20770     20769     20773     20776     20771     20769     20773     20774
     20771     20769     20773     20775     20771     20769     20773     20776
     20772     20769     20773     20774     20772     20769     20773     20775
     20772     20769     20773     20776     20773     20776     20782     20779
     20774     20773     20776     20777     20774     20773     20776     20778
     20774     20773     20776     20782     20775     20773     20776     20777
     20775     20773     20776     20778     20775     20773     20776     20782
     20776     20782     20779     20780     20776     20782     20779     20781
     20776     20782     20779     20783     20777     20776     20782     20779
     20778     20776     20782     20779     20779     20783     20784     20785
     20779     20783     20784     20786     20779     20783     20784     20787
     20780     20779     20783     20784     20781     20779     20783     20784
     20782     20779     20783     20784     20783     20784     20787     20788
     20783     20784     20787     20789     20783     20784     20787     20795
     20784     20787     20789     20790     20784     20787     20795     20796
     20784     20787     20795     20797     20784     20787     20795     20798
     20785     20784     20787     20788     20785     20784     20787     20789
     20785     20784     20787     20795     20786     20784     20787     20788
     20786     20784     20787     20789     20786     20784     20787     20795
     20787     20789     20790     20791     20787     20789     20790     20792
     20787     20795     20798     20799     20788     20787     20789     20790
     20788     20787     20795     20796     20788     20787     20795     20797
     20788     20787     20795     20798     20789     20787     20795     20796
     20789     20787     20795     20797     20789     20787     20795     20798
     20789     20790     20792     20793     20789     20790     20792     20794
     20789     20790     20792     20804     20790     20789     20787     20795
     20790     20792     20804     20805     20790     20792     20804     20806
     20790     20792     20804     20807     20791     20790     20792     20793
     20791     20790     20792     20794     20791     20790     20792     20804
     20792     20804     20807     20808     20792     20804     20807     20809
     20792     20804     20807     20810     20793     20792     20804     20805
     20793     20792     20804     20806     20793     20792     20804     20807
     20794     20792     20804     20805     20794     20792     20804     20806
     20794     20792     20804     20807     20795     20798     20799     20800
     20795     20798     20799     20801     20796     20795     20798     20799
     20797     20795     20798     20799     20798     20799     20801     20802
     20798     20799     20801     20803     20798     20799     20801     20851
     20799     20801     20851     20852     20799     20801     20851     20853
     20799     20801     20851     20854     20800     20799     20801     20802
     20800     20799     20801     20803     20800     20799     20801     20851
     20801     20851     20854     20855     20801     20851     20854     20856
     20801     20851     20854     20857     20802     20801     20851     20852
     20802     20801     20851     20853     20802     20801     20851     20854
     20803     20801     20851     20852     20803     20801     20851     20853
     20803     20801     20851     20854     20804     20807     20810     20811
     20804     20807     20810     20812     20805     20804     20807     20808
     20805     20804     20807     20809     20805     20804     20807     20810
     20806     20804     20807     20808     20806     20804     20807     20809
     20806     20804     20807     20810     20807     20810     20812     20813
     20807     20810     20812     20814     20808     20807     20810     20811
     20808     20807     20810     20812     20809     20807     20810     20811
     20809     20807     20810     20812     20810     20812     20814     20815
     20810     20812     20814     20816     20810     20812     20814     20817
     20811     20810     20812     20813     20811     20810     20812     20814
     20812     20814     20817     20818     20812     20814     20817     20819
     20813     20812     20814     20815     20813     20812     20814     20816
     20813     20812     20814     20817     20814     20817     20819     20820
     20814     20817     20819     20821     20815     20814     20817     20818
     20815     20814     20817     20819     20816     20814     20817     20818
     20816     20814     20817     20819     20817     20819     20821     20822
     20817     20819     20821     20823     20817     20819     20821     20824
     20818     20817     20819     20820     20818     20817     20819     20821
     20819     20821     20824     20825     20819     20821     20824     20826
     20820     20819     20821     20822     20820     20819     20821     20823
     20820     20819     20821     20824     20821     20824     20826     20827
     20821     20824     20826     20828     20822     20821     20824     20825
     20822     20821     20824     20826     20823     20821     20824     20825
     20823     20821     20824     20826     20824     20826     20828     20829
     20824     20826     20828     20830     20824     20826     20828     20831
     20825     20824     20826     20827     20825     20824     20826     20828
     20826     20828     20831     20832     20826     20828     20831     20833
     20827     20826     20828     20829     20827     20826     20828     20830
     20827     20826     20828     20831     20828     20831     20833     20834
     20828     20831     20833     20835     20829     20828     20831     20832
     20829     20828     20831     20833     20830     20828     20831     20832
     20830     20828     20831     20833     20831     20833     20835     20836
     20831     20833     20835     20837     20831     20833     20835     20838
     20832     20831     20833     20834     20832     20831     20833     20835
     20833     20835     20838     20839     20833     20835     20838     20840
     20833     20835     20838     20841     20834     20833     20835     20836
     20834     20833     20835     20837     20834     20833     20835     20838
     20835     20838     20841     20842     20835     20838     20841     20843
     20835     20838     20841     20844     20836     20835     20838     20839
     20836     20835     20838     20840     20836     20835     20838     20841
     20837     20835     20838     20839     20837     20835     20838     20840
     20837     20835     20838     20841     20838     20841     20844     20845
     20838     20841     20844     20846     20838     20841     20844     20847
     20839     20838     20841     20842     20839     20838     20841     20843
     20839     20838     20841     20844     20840     20838     20841     20842
     20840     20838     20841     20843     20840     20838     20841     20844
     20841     20844     20847     20848     20841     20844     20847     20849
     20841     20844     20847     20850     20842     20841     20844     20845
     20842     20841     20844     20846     20842     20841     20844     20847
     20843     20841     20844     20845     20843     20841     20844     20846
     20843     20841     20844     20847     20845     20844     20847     20848
     20845     20844     20847     20849     20845     20844     20847     20850
     20846     20844     20847     20848     20846     20844     20847     20849
     20846     20844     20847     20850     20851     20854     20857     20858
     20851     20854     20857     20859     20851     20854     20857     20860
     20852     20851     20854     20855     20852     20851     20854     20856
     20852     20851     20854     20857     20853     20851     20854     20855
     20853     20851     20854     20856     20853     20851     20854     20857
     20854     20857     20860     20861     20854     20857     20860     20862
     20854     20857     20860     20863     20855     20854     20857     20858
     20855     20854     20857     20859     20855     20854     20857     20860
     20856     20854     20857     20858     20856     20854     20857     20859
     20856     20854     20857     20860     20857     20860     20863     20864
     20857     20860     20863     20865     20857     20860     20863     20866
     20858     20857     20860     20861     20858     20857     20860     20862
     20858     20857     20860     20863     20859     20857     20860     20861
     20859     20857     20860     20862     20859     20857     20860     20863
     20860     20863     20866     20867     20860     20863     20866     20868
     20860     20863     20866     20869     20861     20860     20863     20864
     20861     20860     20863     20865     20861     20860     20863     20866
     20862     20860     20863     20864     20862     20860     20863     20865
     20862     20860     20863     20866     20863     20866     20869     20870
     20863     20866     20869     20871     20863     20866     20869     20872
     20864     20863     20866     20867     20864     20863     20866     20868
     20864     20863     20866     20869     20865     20863     20866     20867
     20865     20863     20866     20868     20865     20863     20866     20869
     20866     20869     20872     20873     20866     20869     20872     20874
     20866     20869     20872     20875     20867     20866     20869     20870
     20867     20866     20869     20871     20867     20866     20869     20872
     20868     20866     20869     20870     20868     20866     20869     20871
     20868     20866     20869     20872     20869     20872     20875     20876
     20869     20872     20875     20877     20869     20872     20875     20878
     20870     20869     20872     20873     20870     20869     20872     20874
     20870     20869     20872     20875     20871     20869     20872     20873
     20871     20869     20872     20874     20871     20869     20872     20875
     20872     20875     20878     20879     20872     20875     20878     20880
     20872     20875     20878     20881     20873     20872     20875     20876
     20873     20872     20875     20877     20873     20872     20875     20878
     20874     20872     20875     20876     20874     20872     20875     20877
     20874     20872     20875     20878     20875     20878     20881     20882
     20875     20878     20881     20883     20875     20878     20881     20884
     20876     20875     20878     20879     20876     20875     20878     20880
     20876     20875     20878     20881     20877     20875     20878     20879
     20877     20875     20878     20880     20877     20875     20878     20881
     20878     20881     20884     20885     20878     20881     20884     20886
     20878     20881     20884     20887     20879     20878     20881     20882
     20879     20878     20881     20883     20879     20878     20881     20884
     20880     20878     20881     20882     20880     20878     20881     20883
     20880     20878     20881     20884     20881     20884     20887     20888
     20881     20884     20887     20889     20881     20884     20887     20890
     20882     20881     20884     20885     20882     20881     20884     20886
     20882     20881     20884     20887     20883     20881     20884     20885
     20883     20881     20884     20886     20883     20881     20884     20887
     20884     20887     20890     20891     20884     20887     20890     20892
     20884     20887     20890     20893     20885     20884     20887     20888
     20885     20884     20887     20889     20885     20884     20887     20890
     20886     20884     20887     20888     20886     20884     20887     20889
     20886     20884     20887     20890     20887     20890     20893     20894
     20887     20890     20893     20895     20887     20890     20893     20896
     20888     20887     20890     20891     20888     20887     20890     20892
     20888     20887     20890     20893     20889     20887     20890     20891
     20889     20887     20890     20892     20889     20887     20890     20893
     20890     20893     20896     20897     20890     20893     20896     20898
     20890     20893     20896     20899     20891     20890     20893     20894
     20891     20890     20893     20895     20891     20890     20893     20896
     20892     20890     20893     20894     20892     20890     20893     20895
     20892     20890     20893     20896     20894     20893     20896     20897
     20894     20893     20896     20898     20894     20893     20896     20899
     20895     20893     20896     20897     20895     20893     20896     20898
     20895     20893     20896     20899     20900     20904     20907     20908
     20900     20904     20907     20909     20900     20904     20907     20913
     20901     20900     20904     20905     20901     20900     20904     20906
     20901     20900     20904     20907     20902     20900     20904     20905
     20902     20900     20904     20906     20902     20900     20904     20907
     20903     20900     20904     20905     20903     20900     20904     20906
     20903     20900     20904     20907     20904     20907     20913     20910
     20905     20904     20907     20908     20905     20904     20907     20909
     20905     20904     20907     20913     20906     20904     20907     20908
     20906     20904     20907     20909     20906     20904     20907     20913
     20907     20913     20910     20911     20907     20913     20910     20912
     20907     20913     20910     20914     20908     20907     20913     20910
     20909     20907     20913     20910     20910     20914     20915     20916
     20910     20914     20915     20917     20910     20914     20915     20918
     20911     20910     20914     20915     20912     20910     20914     20915
     20913     20910     20914     20915     20914     20915     20918     20919
     20914     20915     20918     20920     20914     20915     20918     20926
     20915     20918     20920     20921     20915     20918     20926     20927
     20915     20918     20926     20928     20915     20918     20926     20929
     20916     20915     20918     20919     20916     20915     20918     20920
     20916     20915     20918     20926     20917     20915     20918     20919
     20917     20915     20918     20920     20917     20915     20918     20926
     20918     20920     20921     20922     20918     20920     20921     20923
     20918     20926     20929     20930     20919     20918     20920     20921
     20919     20918     20926     20927     20919     20918     20926     20928
     20919     20918     20926     20929     20920     20918     20926     20927
     20920     20918     20926     20928     20920     20918     20926     20929
     20920     20921     20923     20924     20920     20921     20923     20925
     20920     20921     20923     20935     20921     20920     20918     20926
     20921     20923     20935     20936     20921     20923     20935     20937
     20921     20923     20935     20938     20922     20921     20923     20924
     20922     20921     20923     20925     20922     20921     20923     20935
     20923     20935     20938     20939     20923     20935     20938     20940
     20923     20935     20938     20941     20924     20923     20935     20936
     20924     20923     20935     20937     20924     20923     20935     20938
     20925     20923     20935     20936     20925     20923     20935     20937
     20925     20923     20935     20938     20926     20929     20930     20931
     20926     20929     20930     20932     20927     20926     20929     20930
     20928     20926     20929     20930     20929     20930     20932     20933
     20929     20930     20932     20934     20929     20930     20932     20982
     20930     20932     20982     20983     20930     20932     20982     20984
     20930     20932     20982     20985     20931     20930     20932     20933
     20931     20930     20932     20934     20931     20930     20932     20982
     20932     20982     20985     20986     20932     20982     20985     20987
     20932     20982     20985     20988     20933     20932     20982     20983
     20933     20932     20982     20984     20933     20932     20982     20985
     20934     20932     20982     20983     20934     20932     20982     20984
     20934     20932     20982     20985     20935     20938     20941     20942
     20935     20938     20941     20943     20935     20938     20941     20944
     20936     20935     20938     20939     20936     20935     20938     20940
     20936     20935     20938     20941     20937     20935     20938     20939
     20937     20935     20938     20940     20937     20935     20938     20941
     20938     20941     20944     20945     20938     20941     20944     20946
     20938     20941     20944     20947     20939     20938     20941     20942
     20939     20938     20941     20943     20939     20938     20941     20944
     20940     20938     20941     20942     20940     20938     20941     20943
     20940     20938     20941     20944     20941     20944     20947     20948
     20941     20944     20947     20949     20941     20944     20947     20950
     20942     20941     20944     20945     20942     20941     20944     20946
     20942     20941     20944     20947     20943     20941     20944     20945
     20943     20941     20944     20946     20943     20941     20944     20947
     20944     20947     20950     20951     20944     20947     20950     20952
     20944     20947     20950     20953     20945     20944     20947     20948
     20945     20944     20947     20949     20945     20944     20947     20950
     20946     20944     20947     20948     20946     20944     20947     20949
     20946     20944     20947     20950     20947     20950     20953     20954
     20947     20950     20953     20955     20948     20947     20950     20951
     20948     20947     20950     20952     20948     20947     20950     20953
     20949     20947     20950     20951     20949     20947     20950     20952
     20949     20947     20950     20953     20950     20953     20955     20956
     20950     20953     20955     20957     20951     20950     20953     20954
     20951     20950     20953     20955     20952     20950     20953     20954
     20952     20950     20953     20955     20953     20955     20957     20958
     20953     20955     20957     20959     20953     20955     20957     20960
     20954     20953     20955     20956     20954     20953     20955     20957
     20955     20957     20960     20961     20955     20957     20960     20962
     20955     20957     20960     20963     20956     20955     20957     20958
     20956     20955     20957     20959     20956     20955     20957     20960
     20957     20960     20963     20964     20957     20960     20963     20965
     20957     20960     20963     20966     20958     20957     20960     20961
     20958     20957     20960     20962     20958     20957     20960     20963
     20959     20957     20960     20961     20959     20957     20960     20962
     20959     20957     20960     20963     20960     20963     20966     20967
     20960     20963     20966     20968     20960     20963     20966     20969
     20961     20960     20963     20964     20961     20960     20963     20965
     20961     20960     20963     20966     20962     20960     20963     20964
     20962     20960     20963     20965     20962     20960     20963     20966
     20963     20966     20969     20970     20963     20966     20969     20971
     20963     20966     20969     20972     20964     20963     20966     20967
     20964     20963     20966     20968     20964     20963     20966     20969
     20965     20963     20966     20967     20965     20963     20966     20968
     20965     20963     20966     20969     20966     20969     20972     20973
     20966     20969     20972     20974     20966     20969     20972     20975
     20967     20966     20969     20970     20967     20966     20969     20971
     20967     20966     20969     20972     20968     20966     20969     20970
     20968     20966     20969     20971     20968     20966     20969     20972
     20969     20972     20975     20976     20969     20972     20975     20977
     20969     20972     20975     20978     20970     20969     20972     20973
     20970     20969     20972     20974     20970     20969     20972     20975
     20971     20969     20972     20973     20971     20969     20972     20974
     20971     20969     20972     20975     20972     20975     20978     20979
     20972     20975     20978     20980     20972     20975     20978     20981
     20973     20972     20975     20976     20973     20972     20975     20977
     20973     20972     20975     20978     20974     20972     20975     20976
     20974     20972     20975     20977     20974     20972     20975     20978
     20976     20975     20978     20979     20976     20975     20978     20980
     20976     20975     20978     20981     20977     20975     20978     20979
     20977     20975     20978     20980     20977     20975     20978     20981
     20982     20985     20988     20989     20982     20985     20988     20990
     20982     20985     20988     20991     20983     20982     20985     20986
     20983     20982     20985     20987     20983     20982     20985     20988
     20984     20982     20985     20986     20984     20982     20985     20987
     20984     20982     20985     20988     20985     20988     20991     20992
     20985     20988     20991     20993     20985     20988     20991     20994
     20986     20985     20988     20989     20986     20985     20988     20990
     20986     20985     20988     20991     20987     20985     20988     20989
     20987     20985     20988     20990     20987     20985     20988     20991
     20988     20991     20994     20995     20988     20991     20994     20996
     20988     20991     20994     20997     20989     20988     20991     20992
     20989     20988     20991     20993     20989     20988     20991     20994
     20990     20988     20991     20992     20990     20988     20991     20993
     20990     20988     20991     20994     20991     20994     20997     20998
     20991     20994     20997     20999     20991     20994     20997     21000
     20992     20991     20994     20995     20992     20991     20994     20996
     20992     20991     20994     20997     20993     20991     20994     20995
     20993     20991     20994     20996     20993     20991     20994     20997
     20994     20997     21000     21001     20994     20997     21000     21002
     20994     20997     21000     21003     20995     20994     20997     20998
     20995     20994     20997     20999     20995     20994     20997     21000
     20996     20994     20997     20998     20996     20994     20997     20999
     20996     20994     20997     21000     20997     21000     21003     21004
     20997     21000     21003     21005     20997     21000     21003     21006
     20998     20997     21000     21001     20998     20997     21000     21002
     20998     20997     21000     21003     20999     20997     21000     21001
     20999     20997     21000     21002     20999     20997     21000     21003
     21000     21003     21006     21007     21000     21003     21006     21008
     21000     21003     21006     21009     21001     21000     21003     21004
     21001     21000     21003     21005     21001     21000     21003     21006
     21002     21000     21003     21004     21002     21000     21003     21005
     21002     21000     21003     21006     21003     21006     21009     21010
     21003     21006     21009     21011     21003     21006     21009     21012
     21004     21003     21006     21007     21004     21003     21006     21008
     21004     21003     21006     21009     21005     21003     21006     21007
     21005     21003     21006     21008     21005     21003     21006     21009
     21006     21009     21012     21013     21006     21009     21012     21014
     21006     21009     21012     21015     21007     21006     21009     21010
     21007     21006     21009     21011     21007     21006     21009     21012
     21008     21006     21009     21010     21008     21006     21009     21011
     21008     21006     21009     21012     21009     21012     21015     21016
     21009     21012     21015     21017     21009     21012     21015     21018
     21010     21009     21012     21013     21010     21009     21012     21014
     21010     21009     21012     21015     21011     21009     21012     21013
     21011     21009     21012     21014     21011     21009     21012     21015
     21012     21015     21018     21019     21012     21015     21018     21020
     21012     21015     21018     21021     21013     21012     21015     21016
     21013     21012     21015     21017     21013     21012     21015     21018
     21014     21012     21015     21016     21014     21012     21015     21017
     21014     21012     21015     21018     21015     21018     21021     21022
     21015     21018     21021     21023     21015     21018     21021     21024
     21016     21015     21018     21019     21016     21015     21018     21020
     21016     21015     21018     21021     21017     21015     21018     21019
     21017     21015     21018     21020     21017     21015     21018     21021
     21018     21021     21024     21025     21018     21021     21024     21026
     21018     21021     21024     21027     21019     21018     21021     21022
     21019     21018     21021     21023     21019     21018     21021     21024
     21020     21018     21021     21022     21020     21018     21021     21023
     21020     21018     21021     21024     21021     21024     21027     21028
     21021     21024     21027     21029     21021     21024     21027     21030
     21022     21021     21024     21025     21022     21021     21024     21026
     21022     21021     21024     21027     21023     21021     21024     21025
     21023     21021     21024     21026     21023     21021     21024     21027
     21025     21024     21027     21028     21025     21024     21027     21029
     21025     21024     21027     21030     21026     21024     21027     21028
     21026     21024     21027     21029     21026     21024     21027     21030
     21031     21035     21038     21039     21031     21035     21038     21040
     21031     21035     21038     21044     21032     21031     21035     21036
     21032     21031     21035     21037     21032     21031     21035     21038
     21033     21031     21035     21036     21033     21031     21035     21037
     21033     21031     21035     21038     21034     21031     21035     21036
     21034     21031     21035     21037     21034     21031     21035     21038
     21035     21038     21044     21041     21036     21035     21038     21039
     21036     21035     21038     21040     21036     21035     21038     21044
     21037     21035     21038     21039     21037     21035     21038     21040
     21037     21035     21038     21044     21038     21044     21041     21042
     21038     21044     21041     21043     21038     21044     21041     21045
     21039     21038     21044     21041     21040     21038     21044     21041
     21041     21045     21046     21047     21041     21045     21046     21048
     21041     21045     21046     21049     21042     21041     21045     21046
     21043     21041     21045     21046     21044     21041     21045     21046
     21045     21046     21049     21050     21045     21046     21049     21051
     21045     21046     21049     21057     21046     21049     21051     21052
     21046     21049     21057     21058     21046     21049     21057     21059
     21046     21049     21057     21060     21047     21046     21049     21050
     21047     21046     21049     21051     21047     21046     21049     21057
     21048     21046     21049     21050     21048     21046     21049     21051
     21048     21046     21049     21057     21049     21051     21052     21053
     21049     21051     21052     21054     21049     21057     21060     21061
     21050     21049     21051     21052     21050     21049     21057     21058
     21050     21049     21057     21059     21050     21049     21057     21060
     21051     21049     21057     21058     21051     21049     21057     21059
     21051     21049     21057     21060     21051     21052     21054     21055
     21051     21052     21054     21056     21051     21052     21054     21066
     21052     21051     21049     21057     21052     21054     21066     21067
     21052     21054     21066     21068     21052     21054     21066     21069
     21053     21052     21054     21055     21053     21052     21054     21056
     21053     21052     21054     21066     21054     21066     21069     21070
     21054     21066     21069     21071     21054     21066     21069     21072
     21055     21054     21066     21067     21055     21054     21066     21068
     21055     21054     21066     21069     21056     21054     21066     21067
     21056     21054     21066     21068     21056     21054     21066     21069
     21057     21060     21061     21062     21057     21060     21061     21063
     21058     21057     21060     21061     21059     21057     21060     21061
     21060     21061     21063     21064     21060     21061     21063     21065
     21060     21061     21063     21113     21061     21063     21113     21114
     21061     21063     21113     21115     21061     21063     21113     21116
     21062     21061     21063     21064     21062     21061     21063     21065
     21062     21061     21063     21113     21063     21113     21116     21117
     21063     21113     21116     21118     21063     21113     21116     21119
     21064     21063     21113     21114     21064     21063     21113     21115
     21064     21063     21113     21116     21065     21063     21113     21114
     21065     21063     21113     21115     21065     21063     21113     21116
     21066     21069     21072     21073     21066     21069     21072     21074
     21066     21069     21072     21075     21067     21066     21069     21070
     21067     21066     21069     21071     21067     21066     21069     21072
     21068     21066     21069     21070     21068     21066     21069     21071
     21068     21066     21069     21072     21069     21072     21075     21076
     21069     21072     21075     21077     21069     21072     21075     21078
     21070     21069     21072     21073     21070     21069     21072     21074
     21070     21069     21072     21075     21071     21069     21072     21073
     21071     21069     21072     21074     21071     21069     21072     21075
     21072     21075     21078     21079     21072     21075     21078     21080
     21072     21075     21078     21081     21073     21072     21075     21076
     21073     21072     21075     21077     21073     21072     21075     21078
     21074     21072     21075     21076     21074     21072     21075     21077
     21074     21072     21075     21078     21075     21078     21081     21082
     21075     21078     21081     21083     21075     21078     21081     21084
     21076     21075     21078     21079     21076     21075     21078     21080
     21076     21075     21078     21081     21077     21075     21078     21079
     21077     21075     21078     21080     21077     21075     21078     21081
     21078     21081     21084     21085     21078     21081     21084     21086
     21079     21078     21081     21082     21079     21078     21081     21083
     21079     21078     21081     21084     21080     21078     21081     21082
     21080     21078     21081     21083     21080     21078     21081     21084
     21081     21084     21086     21087     21081     21084     21086     21088
     21082     21081     21084     21085     21082     21081     21084     21086
     21083     21081     21084     21085     21083     21081     21084     21086
     21084     21086     21088     21089     21084     21086     21088     21090
     21084     21086     21088     21091     21085     21084     21086     21087
     21085     21084     21086     21088     21086     21088     21091     21092
     21086     21088     21091     21093     21086     21088     21091     21094
     21087     21086     21088     21089     21087     21086     21088     21090
     21087     21086     21088     21091     21088     21091     21094     21095
     21088     21091     21094     21096     21088     21091     21094     21097
     21089     21088     21091     21092     21089     21088     21091     21093
     21089     21088     21091     21094     21090     21088     21091     21092
     21090     21088     21091     21093     21090     21088     21091     21094
     21091     21094     21097     21098     21091     21094     21097     21099
     21091     21094     21097     21100     21092     21091     21094     21095
     21092     21091     21094     21096     21092     21091     21094     21097
     21093     21091     21094     21095     21093     21091     21094     21096
     21093     21091     21094     21097     21094     21097     21100     21101
     21094     21097     21100     21102     21094     21097     21100     21103
     21095     21094     21097     21098     21095     21094     21097     21099
     21095     21094     21097     21100     21096     21094     21097     21098
     21096     21094     21097     21099     21096     21094     21097     21100
     21097     21100     21103     21104     21097     21100     21103     21105
     21097     21100     21103     21106     21098     21097     21100     21101
     21098     21097     21100     21102     21098     21097     21100     21103
     21099     21097     21100     21101     21099     21097     21100     21102
     21099     21097     21100     21103     21100     21103     21106     21107
     21100     21103     21106     21108     21100     21103     21106     21109
     21101     21100     21103     21104     21101     21100     21103     21105
     21101     21100     21103     21106     21102     21100     21103     21104
     21102     21100     21103     21105     21102     21100     21103     21106
     21103     21106     21109     21110     21103     21106     21109     21111
     21103     21106     21109     21112     21104     21103     21106     21107
     21104     21103     21106     21108     21104     21103     21106     21109
     21105     21103     21106     21107     21105     21103     21106     21108
     21105     21103     21106     21109     21107     21106     21109     21110
     21107     21106     21109     21111     21107     21106     21109     21112
     21108     21106     21109     21110     21108     21106     21109     21111
     21108     21106     21109     21112     21113     21116     21119     21120
     21113     21116     21119     21121     21113     21116     21119     21122
     21114     21113     21116     21117     21114     21113     21116     21118
     21114     21113     21116     21119     21115     21113     21116     21117
     21115     21113     21116     21118     21115     21113     21116     21119
     21116     21119     21122     21123     21116     21119     21122     21124
     21116     21119     21122     21125     21117     21116     21119     21120
     21117     21116     21119     21121     21117     21116     21119     21122
     21118     21116     21119     21120     21118     21116     21119     21121
     21118     21116     21119     21122     21119     21122     21125     21126
     21119     21122     21125     21127     21119     21122     21125     21128
     21120     21119     21122     21123     21120     21119     21122     21124
     21120     21119     21122     21125     21121     21119     21122     21123
     21121     21119     21122     21124     21121     21119     21122     21125
     21122     21125     21128     21129     21122     21125     21128     21130
     21122     21125     21128     21131     21123     21122     21125     21126
     21123     21122     21125     21127     21123     21122     21125     21128
     21124     21122     21125     21126     21124     21122     21125     21127
     21124     21122     21125     21128     21125     21128     21131     21132
     21125     21128     21131     21133     21125     21128     21131     21134
     21126     21125     21128     21129     21126     21125     21128     21130
     21126     21125     21128     21131     21127     21125     21128     21129
     21127     21125     21128     21130     21127     21125     21128     21131
     21128     21131     21134     21135     21128     21131     21134     21136
     21128     21131     21134     21137     21129     21128     21131     21132
     21129     21128     21131     21133     21129     21128     21131     21134
     21130     21128     21131     21132     21130     21128     21131     21133
     21130     21128     21131     21134     21131     21134     21137     21138
     21131     21134     21137     21139     21131     21134     21137     21140
     21132     21131     21134     21135     21132     21131     21134     21136
     21132     21131     21134     21137     21133     21131     21134     21135
     21133     21131     21134     21136     21133     21131     21134     21137
     21134     21137     21140     21141     21134     21137     21140     21142
     21134     21137     21140     21143     21135     21134     21137     21138
     21135     21134     21137     21139     21135     21134     21137     21140
     21136     21134     21137     21138     21136     21134     21137     21139
     21136     21134     21137     21140     21137     21140     21143     21144
     21137     21140     21143     21145     21137     21140     21143     21146
     21138     21137     21140     21141     21138     21137     21140     21142
     21138     21137     21140     21143     21139     21137     21140     21141
     21139     21137     21140     21142     21139     21137     21140     21143
     21140     21143     21146     21147     21140     21143     21146     21148
     21140     21143     21146     21149     21141     21140     21143     21144
     21141     21140     21143     21145     21141     21140     21143     21146
     21142     21140     21143     21144     21142     21140     21143     21145
     21142     21140     21143     21146     21143     21146     21149     21150
     21143     21146     21149     21151     21143     21146     21149     21152
     21144     21143     21146     21147     21144     21143     21146     21148
     21144     21143     21146     21149     21145     21143     21146     21147
     21145     21143     21146     21148     21145     21143     21146     21149
     21146     21149     21152     21153     21146     21149     21152     21154
     21146     21149     21152     21155     21147     21146     21149     21150
     21147     21146     21149     21151     21147     21146     21149     21152
     21148     21146     21149     21150     21148     21146     21149     21151
     21148     21146     21149     21152     21149     21152     21155     21156
     21149     21152     21155     21157     21149     21152     21155     21158
     21150     21149     21152     21153     21150     21149     21152     21154
     21150     21149     21152     21155     21151     21149     21152     21153
     21151     21149     21152     21154     21151     21149     21152     21155
     21152     21155     21158     21159     21152     21155     21158     21160
     21152     21155     21158     21161     21153     21152     21155     21156
     21153     21152     21155     21157     21153     21152     21155     21158
     21154     21152     21155     21156     21154     21152     21155     21157
     21154     21152     21155     21158     21156     21155     21158     21159
     21156     21155     21158     21160     21156     21155     21158     21161
     21157     21155     21158     21159     21157     21155     21158     21160
     21157     21155     21158     21161     21162     21166     21169     21170
     21162     21166     21169     21200     21162     21208     21205     21200
     21162     21208     21205     21206     21162     21208     21205     21207
     21163     21162     21164     21165     21163     21162     21166     21167
     21163     21162     21166     21168     21163     21162     21166     21169
     21163     21162     21208     21205     21163     21162     21208     21209
     21163     21162     21208     21210     21164     21162     21166     21167
     21164     21162     21166     21168     21164     21162     21166     21169
     21164     21162     21208     21205     21164     21162     21208     21209
     21164     21162     21208     21210     21165     21164     21162     21166
     21165     21164     21162     21208     21166     21162     21208     21205
     21166     21162     21208     21209     21166     21162     21208     21210
     21166     21169     21170     21171     21166     21169     21170     21172
     21166     21169     21200     21198     21166     21169     21200     21201
     21166     21169     21200     21205     21167     21166     21162     21208
     21167     21166     21169     21170     21167     21166     21169     21200
     21168     21166     21162     21208     21168     21166     21169     21170
     21168     21166     21169     21200     21169     21166     21162     21208
     21169     21170     21172     21173     21169     21170     21172     21174
     21169     21170     21172     21175     21169     21200     21198     21175
     21169     21200     21198     21195     21169     21200     21198     21199
     21169     21200     21201     21202     21169     21200     21201     21203
     21169     21200     21201     21204     21169     21200     21205     21206
     21169     21200     21205     21207     21169     21200     21205     21208
     21170     21169     21200     21198     21170     21169     21200     21201
     21170     21169     21200     21205     21170     21172     21175     21176
     21170     21172     21175     21177     21170     21172     21175     21198
     21171     21170     21169     21200     21171     21170     21172     21173
     21171     21170     21172     21174     21171     21170     21172     21175
     21172     21170     21169     21200     21172     21175     21177     21178
     21172     21175     21177     21179     21172     21175     21177     21187
     21172     21175     21198     21195     21172     21175     21198     21199
     21172     21175     21198     21200     21173     21172     21175     21176
     21173     21172     21175     21177     21173     21172     21175     21198
     21174     21172     21175     21176     21174     21172     21175     21177
     21174     21172     21175     21198     21175     21177     21179     21180
     21175     21177     21179     21181     21175     21177     21179     21182
     21175     21177     21187     21185     21175     21177     21187     21188
     21175     21177     21187     21192     21175     21198     21195     21192
     21175     21198     21195     21196     21175     21198     21195     21197
     21175     21198     21200     21201     21175     21198     21200     21205
     21176     21175     21177     21178     21176     21175     21177     21179
     21176     21175     21177     21187     21176     21175     21198     21195
     21176     21175     21198     21199     21176     21175     21198     21200
     21177     21175     21198     21195     21177     21175     21198     21199
     21177     21175     21198     21200     21177     21179     21182     21183
     21177     21179     21182     21184     21177     21179     21182     21185
     21177     21187     21185     21182     21177     21187     21185     21186
     21177     21187     21185     21211     21177     21187     21188     21189
     21177     21187     21188     21190     21177     21187     21188     21191
     21177     21187     21192     21193     21177     21187     21192     21194
     21177     21187     21192     21195     21178     21177     21175     21198
     21178     21177     21179     21180     21178     21177     21179     21181
     21178     21177     21179     21182     21178     21177     21187     21185
     21178     21177     21187     21188     21178     21177     21187     21192
     21179     21177     21175     21198     21179     21177     21187     21185
     21179     21177     21187     21188     21179     21177     21187     21192
     21179     21182     21185     21186     21179     21182     21185     21187
     21179     21182     21185     21211     21180     21179     21177     21187
     21180     21179     21182     21183     21180     21179     21182     21184
     21180     21179     21182     21185     21181     21179     21177     21187
     21181     21179     21182     21183     21181     21179     21182     21184
     21181     21179     21182     21185     21182     21179     21177     21187
     21182     21185     21187     21188     21182     21185     21187     21192
     21182     21185     21211     21212     21182     21185     21211     21213
     21182     21185     21211     21217     21183     21182     21185     21186
     21183     21182     21185     21187     21183     21182     21185     21211
     21184     21182     21185     21186     21184     21182     21185     21187
     21184     21182     21185     21211     21185     21187     21188     21189
     21185     21187     21188     21190     21185     21187     21188     21191
     21185     21187     21192     21193     21185     21187     21192     21194
     21185     21187     21192     21195     21185     21211     21213     21214
     21185     21211     21213     21215     21185     21211     21213     21216
     21185     21211     21217     21218     21185     21211     21217     21219
     21185     21211     21217     21220     21186     21185     21187     21188
     21186     21185     21187     21192     21186     21185     21211     21212
     21186     21185     21211     21213     21186     21185     21211     21217
     21187     21177     21175     21198     21187     21185     21211     21212
     21187     21185     21211     21213     21187     21185     21211     21217
     21187     21192     21195     21196     21187     21192     21195     21197
     21187     21192     21195     21198     21188     21187     21185     21211
     21188     21187     21192     21193     21188     21187     21192     21194
     21188     21187     21192     21195     21189     21188     21187     21192
     21190     21188     21187     21192     21191     21188     21187     21192
     21192     21187     21185     21211     21192     21195     21198     21199
     21192     21195     21198     21200     21193     21192     21195     21196
     21193     21192     21195     21197     21193     21192     21195     21198
     21194     21192     21195     21196     21194     21192     21195     21197
     21194     21192     21195     21198     21195     21198     21200     21201
     21195     21198     21200     21205     21196     21195     21198     21199
     21196     21195     21198     21200     21197     21195     21198     21199
     21197     21195     21198     21200     21198     21200     21201     21202
     21198     21200     21201     21203     21198     21200     21201     21204
     21198     21200     21205     21206     21198     21200     21205     21207
     21198     21200     21205     21208     21199     21198     21200     21201
     21199     21198     21200     21205     21200     21205     21208     21209
     21200     21205     21208     21210     21201     21200     21205     21206
     21201     21200     21205     21207     21201     21200     21205     21208
     21202     21201     21200     21205     21203     21201     21200     21205
     21204     21201     21200     21205     21206     21205     21208     21209
     21206     21205     21208     21210     21207     21205     21208     21209
     21207     21205     21208     21210     21211     21217     21220     21221
     21211     21217     21220     21222     21211     21217     21220     21223
     21212     21211     21213     21214     21212     21211     21213     21215
     21212     21211     21213     21216     21212     21211     21217     21218
     21212     21211     21217     21219     21212     21211     21217     21220
     21213     21211     21217     21218     21213     21211     21217     21219
     21213     21211     21217     21220     21214     21213     21211     21217
     21215     21213     21211     21217     21216     21213     21211     21217
     21217     21220     21223     21224     21217     21220     21223     21225
     21217     21220     21223     21226     21218     21217     21220     21221
     21218     21217     21220     21222     21218     21217     21220     21223
     21219     21217     21220     21221     21219     21217     21220     21222
     21219     21217     21220     21223     21220     21223     21226     21227
     21220     21223     21226     21228     21220     21223     21226     21232
     21221     21220     21223     21224     21221     21220     21223     21225
     21221     21220     21223     21226     21222     21220     21223     21224
     21222     21220     21223     21225     21222     21220     21223     21226
     21223     21226     21228     21229     21223     21226     21228     21230
     21223     21226     21228     21231     21223     21226     21232     21233
     21223     21226     21232     21234     21223     21226     21232     21235
     21224     21223     21226     21227     21224     21223     21226     21228
     21224     21223     21226     21232     21225     21223     21226     21227
     21225     21223     21226     21228     21225     21223     21226     21232
     21227     21226     21228     21229     21227     21226     21228     21230
     21227     21226     21228     21231     21227     21226     21232     21233
     21227     21226     21232     21234     21227     21226     21232     21235
     21228     21226     21232     21233     21228     21226     21232     21234
     21228     21226     21232     21235     21229     21228     21226     21232
     21230     21228     21226     21232     21231     21228     21226     21232
     21236     21249     21252     21253     21236     21249     21252     21254
     21236     21249     21252     21259     21237     21236     21241     21242
     21237     21236     21241     21243     21237     21236     21241     21244
     21237     21236     21245     21246     21237     21236     21245     21247
     21237     21236     21245     21248     21237     21236     21249     21250
     21237     21236     21249     21251     21237     21236     21249     21252
     21238     21237     21236     21241     21238     21237     21236     21245
     21238     21237     21236     21249     21239     21237     21236     21241
     21239     21237     21236     21245     21239     21237     21236     21249
     21240     21237     21236     21241     21240     21237     21236     21245
     21240     21237     21236     21249     21241     21236     21245     21246
     21241     21236     21245     21247     21241     21236     21245     21248
     21241     21236     21249     21250     21241     21236     21249     21251
     21241     21236     21249     21252     21242     21241     21236     21245
     21242     21241     21236     21249     21243     21241     21236     21245
     21243     21241     21236     21249     21244     21241     21236     21245
     21244     21241     21236     21249     21245     21236     21249     21250
     21245     21236     21249     21251     21245     21236     21249     21252
     21246     21245     21236     21249     21247     21245     21236     21249
     21248     21245     21236     21249     21249     21252     21259     21255
     21250     21249     21252     21253     21250     21249     21252     21254
     21250     21249     21252     21259     21251     21249     21252     21253
     21251     21249     21252     21254     21251     21249     21252     21259
     21252     21259     21255     21256     21252     21259     21255     21257
     21252     21259     21255     21258     21253     21252     21259     21255
     21254     21252     21259     21255     21255     21258     21260     21261
     21255     21258     21260     21262     21255     21258     21260     21265
     21256     21255     21258     21260     21257     21255     21258     21260
     21258     21260     21265     21263     21258     21260     21265     21266
     21258     21260     21265     21267     21259     21255     21258     21260
     21260     21265     21263     21264     21260     21265     21263     21315
     21260     21265     21267     21268     21260     21265     21267     21269
     21260     21265     21267     21271     21261     21260     21265     21263
     21261     21260     21265     21266     21261     21260     21265     21267
     21262     21260     21265     21263     21262     21260     21265     21266
     21262     21260     21265     21267     21263     21265     21267     21268
     21263     21265     21267     21269     21263     21265     21267     21271
     21263     21315     21317     21318     21263     21315     21317     21319
     21263     21315     21317     21320     21264     21263     21265     21266
     21264     21263     21265     21267     21264     21263     21315     21316
     21264     21263     21315     21317     21265     21263     21315     21316
     21265     21263     21315     21317     21265     21267     21269     21270
     21265     21267     21271     21272     21265     21267     21271     21273
     21266     21265     21263     21315     21266     21265     21267     21268
     21266     21265     21267     21269     21266     21265     21267     21271
     21267     21265     21263     21315     21267     21271     21273     21274
     21267     21271     21273     21275     21268     21267     21269     21270
     21268     21267     21271     21272     21268     21267     21271     21273
     21269     21267     21271     21272     21269     21267     21271     21273
     21270     21269     21267     21271     21271     21273     21275     21276
     21271     21273     21275     21277     21271     21273     21275     21278
     21272     21271     21273     21274     21272     21271     21273     21275
     21273     21275     21278     21279     21273     21275     21278     21280
     21273     21275     21278     21281     21274     21273     21275     21276
     21274     21273     21275     21277     21274     21273     21275     21278
     21275     21278     21281     21282     21275     21278     21281     21283
     21275     21278     21281     21284     21276     21275     21278     21279
     21276     21275     21278     21280     21276     21275     21278     21281
     21277     21275     21278     21279     21277     21275     21278     21280
     21277     21275     21278     21281     21278     21281     21284     21285
     21278     21281     21284     21286     21278     21281     21284     21287
     21279     21278     21281     21282     21279     21278     21281     21283
     21279     21278     21281     21284     21280     21278     21281     21282
     21280     21278     21281     21283     21280     21278     21281     21284
     21281     21284     21287     21288     21281     21284     21287     21289
     21281     21284     21287     21290     21282     21281     21284     21285
     21282     21281     21284     21286     21282     21281     21284     21287
     21283     21281     21284     21285     21283     21281     21284     21286
     21283     21281     21284     21287     21284     21287     21290     21291
     21284     21287     21290     21292     21284     21287     21290     21293
     21285     21284     21287     21288     21285     21284     21287     21289
     21285     21284     21287     21290     21286     21284     21287     21288
     21286     21284     21287     21289     21286     21284     21287     21290
     21287     21290     21293     21294     21287     21290     21293     21295
     21287     21290     21293     21296     21288     21287     21290     21291
     21288     21287     21290     21292     21288     21287     21290     21293
     21289     21287     21290     21291     21289     21287     21290     21292
     21289     21287     21290     21293     21290     21293     21296     21297
     21290     21293     21296     21298     21290     21293     21296     21299
     21291     21290     21293     21294     21291     21290     21293     21295
     21291     21290     21293     21296     21292     21290     21293     21294
     21292     21290     21293     21295     21292     21290     21293     21296
     21293     21296     21299     21300     21293     21296     21299     21301
     21293     21296     21299     21302     21294     21293     21296     21297
     21294     21293     21296     21298     21294     21293     21296     21299
     21295     21293     21296     21297     21295     21293     21296     21298
     21295     21293     21296     21299     21296     21299     21302     21303
     21296     21299     21302     21304     21296     21299     21302     21305
     21297     21296     21299     21300     21297     21296     21299     21301
     21297     21296     21299     21302     21298     21296     21299     21300
     21298     21296     21299     21301     21298     21296     21299     21302
     21299     21302     21305     21306     21299     21302     21305     21307
     21299     21302     21305     21308     21300     21299     21302     21303
     21300     21299     21302     21304     21300     21299     21302     21305
     21301     21299     21302     21303     21301     21299     21302     21304
     21301     21299     21302     21305     21302     21305     21308     21309
     21302     21305     21308     21310     21302     21305     21308     21311
     21303     21302     21305     21306     21303     21302     21305     21307
     21303     21302     21305     21308     21304     21302     21305     21306
     21304     21302     21305     21307     21304     21302     21305     21308
     21305     21308     21311     21312     21305     21308     21311     21313
     21305     21308     21311     21314     21306     21305     21308     21309
     21306     21305     21308     21310     21306     21305     21308     21311
     21307     21305     21308     21309     21307     21305     21308     21310
     21307     21305     21308     21311     21309     21308     21311     21312
     21309     21308     21311     21313     21309     21308     21311     21314
     21310     21308     21311     21312     21310     21308     21311     21313
     21310     21308     21311     21314     21315     21317     21320     21321
     21315     21317     21320     21322     21315     21317     21320     21323
     21316     21315     21317     21318     21316     21315     21317     21319
     21316     21315     21317     21320     21317     21320     21323     21324
     21317     21320     21323     21325     21317     21320     21323     21326
     21318     21317     21320     21321     21318     21317     21320     21322
     21318     21317     21320     21323     21319     21317     21320     21321
     21319     21317     21320     21322     21319     21317     21320     21323
     21320     21323     21326     21327     21320     21323     21326     21328
     21320     21323     21326     21329     21321     21320     21323     21324
     21321     21320     21323     21325     21321     21320     21323     21326
     21322     21320     21323     21324     21322     21320     21323     21325
     21322     21320     21323     21326     21323     21326     21329     21330
     21323     21326     21329     21331     21323     21326     21329     21332
     21324     21323     21326     21327     21324     21323     21326     21328
     21324     21323     21326     21329     21325     21323     21326     21327
     21325     21323     21326     21328     21325     21323     21326     21329
     21326     21329     21332     21333     21326     21329     21332     21334
     21326     21329     21332     21335     21327     21326     21329     21330
     21327     21326     21329     21331     21327     21326     21329     21332
     21328     21326     21329     21330     21328     21326     21329     21331
     21328     21326     21329     21332     21329     21332     21335     21336
     21329     21332     21335     21337     21329     21332     21335     21338
     21330     21329     21332     21333     21330     21329     21332     21334
     21330     21329     21332     21335     21331     21329     21332     21333
     21331     21329     21332     21334     21331     21329     21332     21335
     21332     21335     21338     21339     21332     21335     21338     21340
     21333     21332     21335     21336     21333     21332     21335     21337
     21333     21332     21335     21338     21334     21332     21335     21336
     21334     21332     21335     21337     21334     21332     21335     21338
     21335     21338     21340     21341     21335     21338     21340     21342
     21336     21335     21338     21339     21336     21335     21338     21340
     21337     21335     21338     21339     21337     21335     21338     21340
     21338     21340     21342     21343     21338     21340     21342     21344
     21338     21340     21342     21345     21339     21338     21340     21341
     21339     21338     21340     21342     21340     21342     21345     21346
     21340     21342     21345     21347     21340     21342     21345     21348
     21341     21340     21342     21343     21341     21340     21342     21344
     21341     21340     21342     21345     21342     21345     21348     21349
     21342     21345     21348     21350     21342     21345     21348     21351
     21343     21342     21345     21346     21343     21342     21345     21347
     21343     21342     21345     21348     21344     21342     21345     21346
     21344     21342     21345     21347     21344     21342     21345     21348
     21345     21348     21351     21352     21345     21348     21351     21353
     21345     21348     21351     21354     21346     21345     21348     21349
     21346     21345     21348     21350     21346     21345     21348     21351
     21347     21345     21348     21349     21347     21345     21348     21350
     21347     21345     21348     21351     21348     21351     21354     21355
     21348     21351     21354     21356     21348     21351     21354     21357
     21349     21348     21351     21352     21349     21348     21351     21353
     21349     21348     21351     21354     21350     21348     21351     21352
     21350     21348     21351     21353     21350     21348     21351     21354
     21351     21354     21357     21358     21351     21354     21357     21359
     21351     21354     21357     21360     21352     21351     21354     21355
     21352     21351     21354     21356     21352     21351     21354     21357
     21353     21351     21354     21355     21353     21351     21354     21356
     21353     21351     21354     21357     21354     21357     21360     21361
     21354     21357     21360     21362     21354     21357     21360     21363
     21355     21354     21357     21358     21355     21354     21357     21359
     21355     21354     21357     21360     21356     21354     21357     21358
     21356     21354     21357     21359     21356     21354     21357     21360
     21357     21360     21363     21364     21357     21360     21363     21365
     21357     21360     21363     21366     21358     21357     21360     21361
     21358     21357     21360     21362     21358     21357     21360     21363
     21359     21357     21360     21361     21359     21357     21360     21362
     21359     21357     21360     21363     21361     21360     21363     21364
     21361     21360     21363     21365     21361     21360     21363     21366
     21362     21360     21363     21364     21362     21360     21363     21365
     21362     21360     21363     21366     21367     21371     21374     21375
     21367     21371     21374     21376     21367     21371     21374     21380
     21368     21367     21371     21372     21368     21367     21371     21373
     21368     21367     21371     21374     21369     21367     21371     21372
     21369     21367     21371     21373     21369     21367     21371     21374
     21370     21367     21371     21372     21370     21367     21371     21373
     21370     21367     21371     21374     21371     21374     21380     21377
     21372     21371     21374     21375     21372     21371     21374     21376
     21372     21371     21374     21380     21373     21371     21374     21375
     21373     21371     21374     21376     21373     21371     21374     21380
     21374     21380     21377     21378     21374     21380     21377     21379
     21374     21380     21377     21381     21375     21374     21380     21377
     21376     21374     21380     21377     21377     21381     21382     21383
     21377     21381     21382     21384     21377     21381     21382     21385
     21378     21377     21381     21382     21379     21377     21381     21382
     21380     21377     21381     21382     21381     21382     21385     21386
     21381     21382     21385     21387     21381     21382     21385     21393
     21382     21385     21387     21388     21382     21385     21393     21394
     21382     21385     21393     21395     21382     21385     21393     21396
     21383     21382     21385     21386     21383     21382     21385     21387
     21383     21382     21385     21393     21384     21382     21385     21386
     21384     21382     21385     21387     21384     21382     21385     21393
     21385     21387     21388     21389     21385     21387     21388     21390
     21385     21393     21396     21397     21386     21385     21387     21388
     21386     21385     21393     21394     21386     21385     21393     21395
     21386     21385     21393     21396     21387     21385     21393     21394
     21387     21385     21393     21395     21387     21385     21393     21396
     21387     21388     21390     21391     21387     21388     21390     21392
     21387     21388     21390     21402     21388     21387     21385     21393
     21388     21390     21402     21403     21388     21390     21402     21404
     21388     21390     21402     21405     21389     21388     21390     21391
     21389     21388     21390     21392     21389     21388     21390     21402
     21390     21402     21405     21406     21390     21402     21405     21407
     21390     21402     21405     21408     21391     21390     21402     21403
     21391     21390     21402     21404     21391     21390     21402     21405
     21392     21390     21402     21403     21392     21390     21402     21404
     21392     21390     21402     21405     21393     21396     21397     21398
     21393     21396     21397     21399     21394     21393     21396     21397
     21395     21393     21396     21397     21396     21397     21399     21400
     21396     21397     21399     21401     21396     21397     21399     21449
     21397     21399     21449     21450     21397     21399     21449     21451
     21397     21399     21449     21452     21398     21397     21399     21400
     21398     21397     21399     21401     21398     21397     21399     21449
     21399     21449     21452     21453     21399     21449     21452     21454
     21399     21449     21452     21455     21400     21399     21449     21450
     21400     21399     21449     21451     21400     21399     21449     21452
     21401     21399     21449     21450     21401     21399     21449     21451
     21401     21399     21449     21452     21402     21405     21408     21409
     21402     21405     21408     21410     21403     21402     21405     21406
     21403     21402     21405     21407     21403     21402     21405     21408
     21404     21402     21405     21406     21404     21402     21405     21407
     21404     21402     21405     21408     21405     21408     21410     21411
     21405     21408     21410     21412     21406     21405     21408     21409
     21406     21405     21408     21410     21407     21405     21408     21409
     21407     21405     21408     21410     21408     21410     21412     21413
     21408     21410     21412     21414     21408     21410     21412     21415
     21409     21408     21410     21411     21409     21408     21410     21412
     21410     21412     21415     21416     21410     21412     21415     21417
     21411     21410     21412     21413     21411     21410     21412     21414
     21411     21410     21412     21415     21412     21415     21417     21418
     21412     21415     21417     21419     21413     21412     21415     21416
     21413     21412     21415     21417     21414     21412     21415     21416
     21414     21412     21415     21417     21415     21417     21419     21420
     21415     21417     21419     21421     21415     21417     21419     21422
     21416     21415     21417     21418     21416     21415     21417     21419
     21417     21419     21422     21423     21417     21419     21422     21424
     21418     21417     21419     21420     21418     21417     21419     21421
     21418     21417     21419     21422     21419     21422     21424     21425
     21419     21422     21424     21426     21420     21419     21422     21423
     21420     21419     21422     21424     21421     21419     21422     21423
     21421     21419     21422     21424     21422     21424     21426     21427
     21422     21424     21426     21428     21422     21424     21426     21429
     21423     21422     21424     21425     21423     21422     21424     21426
     21424     21426     21429     21430     21424     21426     21429     21431
     21425     21424     21426     21427     21425     21424     21426     21428
     21425     21424     21426     21429     21426     21429     21431     21432
     21426     21429     21431     21433     21427     21426     21429     21430
     21427     21426     21429     21431     21428     21426     21429     21430
     21428     21426     21429     21431     21429     21431     21433     21434
     21429     21431     21433     21435     21429     21431     21433     21436
     21430     21429     21431     21432     21430     21429     21431     21433
     21431     21433     21436     21437     21431     21433     21436     21438
     21431     21433     21436     21439     21432     21431     21433     21434
     21432     21431     21433     21435     21432     21431     21433     21436
     21433     21436     21439     21440     21433     21436     21439     21441
     21433     21436     21439     21442     21434     21433     21436     21437
     21434     21433     21436     21438     21434     21433     21436     21439
     21435     21433     21436     21437     21435     21433     21436     21438
     21435     21433     21436     21439     21436     21439     21442     21443
     21436     21439     21442     21444     21436     21439     21442     21445
     21437     21436     21439     21440     21437     21436     21439     21441
     21437     21436     21439     21442     21438     21436     21439     21440
     21438     21436     21439     21441     21438     21436     21439     21442
     21439     21442     21445     21446     21439     21442     21445     21447
     21439     21442     21445     21448     21440     21439     21442     21443
     21440     21439     21442     21444     21440     21439     21442     21445
     21441     21439     21442     21443     21441     21439     21442     21444
     21441     21439     21442     21445     21443     21442     21445     21446
     21443     21442     21445     21447     21443     21442     21445     21448
     21444     21442     21445     21446     21444     21442     21445     21447
     21444     21442     21445     21448     21449     21452     21455     21456
     21449     21452     21455     21457     21449     21452     21455     21458
     21450     21449     21452     21453     21450     21449     21452     21454
     21450     21449     21452     21455     21451     21449     21452     21453
     21451     21449     21452     21454     21451     21449     21452     21455
     21452     21455     21458     21459     21452     21455     21458     21460
     21452     21455     21458     21461     21453     21452     21455     21456
     21453     21452     21455     21457     21453     21452     21455     21458
     21454     21452     21455     21456     21454     21452     21455     21457
     21454     21452     21455     21458     21455     21458     21461     21462
     21455     21458     21461     21463     21455     21458     21461     21464
     21456     21455     21458     21459     21456     21455     21458     21460
     21456     21455     21458     21461     21457     21455     21458     21459
     21457     21455     21458     21460     21457     21455     21458     21461
     21458     21461     21464     21465     21458     21461     21464     21466
     21458     21461     21464     21467     21459     21458     21461     21462
     21459     21458     21461     21463     21459     21458     21461     21464
     21460     21458     21461     21462     21460     21458     21461     21463
     21460     21458     21461     21464     21461     21464     21467     21468
     21461     21464     21467     21469     21461     21464     21467     21470
     21462     21461     21464     21465     21462     21461     21464     21466
     21462     21461     21464     21467     21463     21461     21464     21465
     21463     21461     21464     21466     21463     21461     21464     21467
     21464     21467     21470     21471     21464     21467     21470     21472
     21464     21467     21470     21473     21465     21464     21467     21468
     21465     21464     21467     21469     21465     21464     21467     21470
     21466     21464     21467     21468     21466     21464     21467     21469
     21466     21464     21467     21470     21467     21470     21473     21474
     21467     21470     21473     21475     21467     21470     21473     21476
     21468     21467     21470     21471     21468     21467     21470     21472
     21468     21467     21470     21473     21469     21467     21470     21471
     21469     21467     21470     21472     21469     21467     21470     21473
     21470     21473     21476     21477     21470     21473     21476     21478
     21470     21473     21476     21479     21471     21470     21473     21474
     21471     21470     21473     21475     21471     21470     21473     21476
     21472     21470     21473     21474     21472     21470     21473     21475
     21472     21470     21473     21476     21473     21476     21479     21480
     21473     21476     21479     21481     21473     21476     21479     21482
     21474     21473     21476     21477     21474     21473     21476     21478
     21474     21473     21476     21479     21475     21473     21476     21477
     21475     21473     21476     21478     21475     21473     21476     21479
     21476     21479     21482     21483     21476     21479     21482     21484
     21476     21479     21482     21485     21477     21476     21479     21480
     21477     21476     21479     21481     21477     21476     21479     21482
     21478     21476     21479     21480     21478     21476     21479     21481
     21478     21476     21479     21482     21479     21482     21485     21486
     21479     21482     21485     21487     21479     21482     21485     21488
     21480     21479     21482     21483     21480     21479     21482     21484
     21480     21479     21482     21485     21481     21479     21482     21483
     21481     21479     21482     21484     21481     21479     21482     21485
     21482     21485     21488     21489     21482     21485     21488     21490
     21482     21485     21488     21491     21483     21482     21485     21486
     21483     21482     21485     21487     21483     21482     21485     21488
     21484     21482     21485     21486     21484     21482     21485     21487
     21484     21482     21485     21488     21485     21488     21491     21492
     21485     21488     21491     21493     21485     21488     21491     21494
     21486     21485     21488     21489     21486     21485     21488     21490
     21486     21485     21488     21491     21487     21485     21488     21489
     21487     21485     21488     21490     21487     21485     21488     21491
     21488     21491     21494     21495     21488     21491     21494     21496
     21488     21491     21494     21497     21489     21488     21491     21492
     21489     21488     21491     21493     21489     21488     21491     21494
     21490     21488     21491     21492     21490     21488     21491     21493
     21490     21488     21491     21494     21492     21491     21494     21495
     21492     21491     21494     21496     21492     21491     21494     21497
     21493     21491     21494     21495     21493     21491     21494     21496
     21493     21491     21494     21497     21498     21511     21514     21515
     21498     21511     21514     21516     21498     21511     21514     21521
     21499     21498     21503     21504     21499     21498     21503     21505
     21499     21498     21503     21506     21499     21498     21507     21508
     21499     21498     21507     21509     21499     21498     21507     21510
     21499     21498     21511     21512     21499     21498     21511     21513
     21499     21498     21511     21514     21500     21499     21498     21503
     21500     21499     21498     21507     21500     21499     21498     21511
     21501     21499     21498     21503     21501     21499     21498     21507
     21501     21499     21498     21511     21502     21499     21498     21503
     21502     21499     21498     21507     21502     21499     21498     21511
     21503     21498     21507     21508     21503     21498     21507     21509
     21503     21498     21507     21510     21503     21498     21511     21512
     21503     21498     21511     21513     21503     21498     21511     21514
     21504     21503     21498     21507     21504     21503     21498     21511
     21505     21503     21498     21507     21505     21503     21498     21511
     21506     21503     21498     21507     21506     21503     21498     21511
     21507     21498     21511     21512     21507     21498     21511     21513
     21507     21498     21511     21514     21508     21507     21498     21511
     21509     21507     21498     21511     21510     21507     21498     21511
     21511     21514     21521     21517     21512     21511     21514     21515
     21512     21511     21514     21516     21512     21511     21514     21521
     21513     21511     21514     21515     21513     21511     21514     21516
     21513     21511     21514     21521     21514     21521     21517     21518
     21514     21521     21517     21519     21514     21521     21517     21520
     21515     21514     21521     21517     21516     21514     21521     21517
     21517     21520     21522     21523     21517     21520     21522     21524
     21517     21520     21522     21527     21518     21517     21520     21522
     21519     21517     21520     21522     21520     21522     21527     21525
     21520     21522     21527     21528     21520     21522     21527     21529
     21521     21517     21520     21522     21522     21527     21525     21526
     21522     21527     21525     21577     21522     21527     21529     21530
     21522     21527     21529     21531     21522     21527     21529     21533
     21523     21522     21527     21525     21523     21522     21527     21528
     21523     21522     21527     21529     21524     21522     21527     21525
     21524     21522     21527     21528     21524     21522     21527     21529
     21525     21527     21529     21530     21525     21527     21529     21531
     21525     21527     21529     21533     21525     21577     21579     21580
     21525     21577     21579     21581     21525     21577     21579     21582
     21526     21525     21527     21528     21526     21525     21527     21529
     21526     21525     21577     21578     21526     21525     21577     21579
     21527     21525     21577     21578     21527     21525     21577     21579
     21527     21529     21531     21532     21527     21529     21533     21534
     21527     21529     21533     21535     21528     21527     21525     21577
     21528     21527     21529     21530     21528     21527     21529     21531
     21528     21527     21529     21533     21529     21527     21525     21577
     21529     21533     21535     21536     21529     21533     21535     21537
     21530     21529     21531     21532     21530     21529     21533     21534
     21530     21529     21533     21535     21531     21529     21533     21534
     21531     21529     21533     21535     21532     21531     21529     21533
     21533     21535     21537     21538     21533     21535     21537     21539
     21533     21535     21537     21540     21534     21533     21535     21536
     21534     21533     21535     21537     21535     21537     21540     21541
     21535     21537     21540     21542     21535     21537     21540     21543
     21536     21535     21537     21538     21536     21535     21537     21539
     21536     21535     21537     21540     21537     21540     21543     21544
     21537     21540     21543     21545     21537     21540     21543     21546
     21538     21537     21540     21541     21538     21537     21540     21542
     21538     21537     21540     21543     21539     21537     21540     21541
     21539     21537     21540     21542     21539     21537     21540     21543
     21540     21543     21546     21547     21540     21543     21546     21548
     21540     21543     21546     21549     21541     21540     21543     21544
     21541     21540     21543     21545     21541     21540     21543     21546
     21542     21540     21543     21544     21542     21540     21543     21545
     21542     21540     21543     21546     21543     21546     21549     21550
     21543     21546     21549     21551     21543     21546     21549     21552
     21544     21543     21546     21547     21544     21543     21546     21548
     21544     21543     21546     21549     21545     21543     21546     21547
     21545     21543     21546     21548     21545     21543     21546     21549
     21546     21549     21552     21553     21546     21549     21552     21554
     21546     21549     21552     21555     21547     21546     21549     21550
     21547     21546     21549     21551     21547     21546     21549     21552
     21548     21546     21549     21550     21548     21546     21549     21551
     21548     21546     21549     21552     21549     21552     21555     21556
     21549     21552     21555     21557     21549     21552     21555     21558
     21550     21549     21552     21553     21550     21549     21552     21554
     21550     21549     21552     21555     21551     21549     21552     21553
     21551     21549     21552     21554     21551     21549     21552     21555
     21552     21555     21558     21559     21552     21555     21558     21560
     21552     21555     21558     21561     21553     21552     21555     21556
     21553     21552     21555     21557     21553     21552     21555     21558
     21554     21552     21555     21556     21554     21552     21555     21557
     21554     21552     21555     21558     21555     21558     21561     21562
     21555     21558     21561     21563     21555     21558     21561     21564
     21556     21555     21558     21559     21556     21555     21558     21560
     21556     21555     21558     21561     21557     21555     21558     21559
     21557     21555     21558     21560     21557     21555     21558     21561
     21558     21561     21564     21565     21558     21561     21564     21566
     21558     21561     21564     21567     21559     21558     21561     21562
     21559     21558     21561     21563     21559     21558     21561     21564
     21560     21558     21561     21562     21560     21558     21561     21563
     21560     21558     21561     21564     21561     21564     21567     21568
     21561     21564     21567     21569     21561     21564     21567     21570
     21562     21561     21564     21565     21562     21561     21564     21566
     21562     21561     21564     21567     21563     21561     21564     21565
     21563     21561     21564     21566     21563     21561     21564     21567
     21564     21567     21570     21571     21564     21567     21570     21572
     21564     21567     21570     21573     21565     21564     21567     21568
     21565     21564     21567     21569     21565     21564     21567     21570
     21566     21564     21567     21568     21566     21564     21567     21569
     21566     21564     21567     21570     21567     21570     21573     21574
     21567     21570     21573     21575     21567     21570     21573     21576
     21568     21567     21570     21571     21568     21567     21570     21572
     21568     21567     21570     21573     21569     21567     21570     21571
     21569     21567     21570     21572     21569     21567     21570     21573
     21571     21570     21573     21574     21571     21570     21573     21575
     21571     21570     21573     21576     21572     21570     21573     21574
     21572     21570     21573     21575     21572     21570     21573     21576
     21577     21579     21582     21583     21577     21579     21582     21584
     21577     21579     21582     21585     21578     21577     21579     21580
     21578     21577     21579     21581     21578     21577     21579     21582
     21579     21582     21585     21586     21579     21582     21585     21587
     21579     21582     21585     21588     21580     21579     21582     21583
     21580     21579     21582     21584     21580     21579     21582     21585
     21581     21579     21582     21583     21581     21579     21582     21584
     21581     21579     21582     21585     21582     21585     21588     21589
     21582     21585     21588     21590     21582     21585     21588     21591
     21583     21582     21585     21586     21583     21582     21585     21587
     21583     21582     21585     21588     21584     21582     21585     21586
     21584     21582     21585     21587     21584     21582     21585     21588
     21585     21588     21591     21592     21585     21588     21591     21593
     21585     21588     21591     21594     21586     21585     21588     21589
     21586     21585     21588     21590     21586     21585     21588     21591
     21587     21585     21588     21589     21587     21585     21588     21590
     21587     21585     21588     21591     21588     21591     21594     21595
     21588     21591     21594     21596     21588     21591     21594     21597
     21589     21588     21591     21592     21589     21588     21591     21593
     21589     21588     21591     21594     21590     21588     21591     21592
     21590     21588     21591     21593     21590     21588     21591     21594
     21591     21594     21597     21598     21591     21594     21597     21599
     21591     21594     21597     21600     21592     21591     21594     21595
     21592     21591     21594     21596     21592     21591     21594     21597
     21593     21591     21594     21595     21593     21591     21594     21596
     21593     21591     21594     21597     21594     21597     21600     21601
     21594     21597     21600     21602     21595     21594     21597     21598
     21595     21594     21597     21599     21595     21594     21597     21600
     21596     21594     21597     21598     21596     21594     21597     21599
     21596     21594     21597     21600     21597     21600     21602     21603
     21597     21600     21602     21604     21598     21597     21600     21601
     21598     21597     21600     21602     21599     21597     21600     21601
     21599     21597     21600     21602     21600     21602     21604     21605
     21600     21602     21604     21606     21600     21602     21604     21607
     21601     21600     21602     21603     21601     21600     21602     21604
     21602     21604     21607     21608     21602     21604     21607     21609
     21602     21604     21607     21610     21603     21602     21604     21605
     21603     21602     21604     21606     21603     21602     21604     21607
     21604     21607     21610     21611     21604     21607     21610     21612
     21604     21607     21610     21613     21605     21604     21607     21608
     21605     21604     21607     21609     21605     21604     21607     21610
     21606     21604     21607     21608     21606     21604     21607     21609
     21606     21604     21607     21610     21607     21610     21613     21614
     21607     21610     21613     21615     21607     21610     21613     21616
     21608     21607     21610     21611     21608     21607     21610     21612
     21608     21607     21610     21613     21609     21607     21610     21611
     21609     21607     21610     21612     21609     21607     21610     21613
     21610     21613     21616     21617     21610     21613     21616     21618
     21610     21613     21616     21619     21611     21610     21613     21614
     21611     21610     21613     21615     21611     21610     21613     21616
     21612     21610     21613     21614     21612     21610     21613     21615
     21612     21610     21613     21616     21613     21616     21619     21620
     21613     21616     21619     21621     21613     21616     21619     21622
     21614     21613     21616     21617     21614     21613     21616     21618
     21614     21613     21616     21619     21615     21613     21616     21617
     21615     21613     21616     21618     21615     21613     21616     21619
     21616     21619     21622     21623     21616     21619     21622     21624
     21616     21619     21622     21625     21617     21616     21619     21620
     21617     21616     21619     21621     21617     21616     21619     21622
     21618     21616     21619     21620     21618     21616     21619     21621
     21618     21616     21619     21622     21619     21622     21625     21626
     21619     21622     21625     21627     21619     21622     21625     21628
     21620     21619     21622     21623     21620     21619     21622     21624
     21620     21619     21622     21625     21621     21619     21622     21623
     21621     21619     21622     21624     21621     21619     21622     21625
     21623     21622     21625     21626     21623     21622     21625     21627
     21623     21622     21625     21628     21624     21622     21625     21626
     21624     21622     21625     21627     21624     21622     21625     21628
     21629     21633     21636     21637     21629     21633     21636     21667
     21629     21675     21672     21667     21629     21675     21672     21673
     21629     21675     21672     21674     21630     21629     21631     21632
     21630     21629     21633     21634     21630     21629     21633     21635
     21630     21629     21633     21636     21630     21629     21675     21672
     21630     21629     21675     21676     21630     21629     21675     21677
     21631     21629     21633     21634     21631     21629     21633     21635
     21631     21629     21633     21636     21631     21629     21675     21672
     21631     21629     21675     21676     21631     21629     21675     21677
     21632     21631     21629     21633     21632     21631     21629     21675
     21633     21629     21675     21672     21633     21629     21675     21676
     21633     21629     21675     21677     21633     21636     21637     21638
     21633     21636     21637     21639     21633     21636     21667     21665
     21633     21636     21667     21668     21633     21636     21667     21672
     21634     21633     21629     21675     21634     21633     21636     21637
     21634     21633     21636     21667     21635     21633     21629     21675
     21635     21633     21636     21637     21635     21633     21636     21667
     21636     21633     21629     21675     21636     21637     21639     21640
     21636     21637     21639     21641     21636     21637     21639     21642
     21636     21667     21665     21642     21636     21667     21665     21662
     21636     21667     21665     21666     21636     21667     21668     21669
     21636     21667     21668     21670     21636     21667     21668     21671
     21636     21667     21672     21673     21636     21667     21672     21674
     21636     21667     21672     21675     21637     21636     21667     21665
     21637     21636     21667     21668     21637     21636     21667     21672
     21637     21639     21642     21643     21637     21639     21642     21644
     21637     21639     21642     21665     21638     21637     21636     21667
     21638     21637     21639     21640     21638     21637     21639     21641
     21638     21637     21639     21642     21639     21637     21636     21667
     21639     21642     21644     21645     21639     21642     21644     21646
     21639     21642     21644     21654     21639     21642     21665     21662
     21639     21642     21665     21666     21639     21642     21665     21667
     21640     21639     21642     21643     21640     21639     21642     21644
     21640     21639     21642     21665     21641     21639     21642     21643
     21641     21639     21642     21644     21641     21639     21642     21665
     21642     21644     21646     21647     21642     21644     21646     21648
     21642     21644     21646     21649     21642     21644     21654     21652
     21642     21644     21654     21655     21642     21644     21654     21659
     21642     21665     21662     21659     21642     21665     21662     21663
     21642     21665     21662     21664     21642     21665     21667     21668
     21642     21665     21667     21672     21643     21642     21644     21645
     21643     21642     21644     21646     21643     21642     21644     21654
     21643     21642     21665     21662     21643     21642     21665     21666
     21643     21642     21665     21667     21644     21642     21665     21662
     21644     21642     21665     21666     21644     21642     21665     21667
     21644     21646     21649     21650     21644     21646     21649     21651
     21644     21646     21649     21652     21644     21654     21652     21649
     21644     21654     21652     21653     21644     21654     21652     21678
     21644     21654     21655     21656     21644     21654     21655     21657
     21644     21654     21655     21658     21644     21654     21659     21660
     21644     21654     21659     21661     21644     21654     21659     21662
     21645     21644     21642     21665     21645     21644     21646     21647
     21645     21644     21646     21648     21645     21644     21646     21649
     21645     21644     21654     21652     21645     21644     21654     21655
     21645     21644     21654     21659     21646     21644     21642     21665
     21646     21644     21654     21652     21646     21644     21654     21655
     21646     21644     21654     21659     21646     21649     21652     21653
     21646     21649     21652     21654     21646     21649     21652     21678
     21647     21646     21644     21654     21647     21646     21649     21650
     21647     21646     21649     21651     21647     21646     21649     21652
     21648     21646     21644     21654     21648     21646     21649     21650
     21648     21646     21649     21651     21648     21646     21649     21652
     21649     21646     21644     21654     21649     21652     21654     21655
     21649     21652     21654     21659     21649     21652     21678     21679
     21649     21652     21678     21680     21649     21652     21678     21684
     21650     21649     21652     21653     21650     21649     21652     21654
     21650     21649     21652     21678     21651     21649     21652     21653
     21651     21649     21652     21654     21651     21649     21652     21678
     21652     21654     21655     21656     21652     21654     21655     21657
     21652     21654     21655     21658     21652     21654     21659     21660
     21652     21654     21659     21661     21652     21654     21659     21662
     21652     21678     21680     21681     21652     21678     21680     21682
     21652     21678     21680     21683     21652     21678     21684     21685
     21652     21678     21684     21686     21652     21678     21684     21687
     21653     21652     21654     21655     21653     21652     21654     21659
     21653     21652     21678     21679     21653     21652     21678     21680
     21653     21652     21678     21684     21654     21644     21642     21665
     21654     21652     21678     21679     21654     21652     21678     21680
     21654     21652     21678     21684     21654     21659     21662     21663
     21654     21659     21662     21664     21654     21659     21662     21665
     21655     21654     21652     21678     21655     21654     21659     21660
     21655     21654     21659     21661     21655     21654     21659     21662
     21656     21655     21654     21659     21657     21655     21654     21659
     21658     21655     21654     21659     21659     21654     21652     21678
     21659     21662     21665     21666     21659     21662     21665     21667
     21660     21659     21662     21663     21660     21659     21662     21664
     21660     21659     21662     21665     21661     21659     21662     21663
     21661     21659     21662     21664     21661     21659     21662     21665
     21662     21665     21667     21668     21662     21665     21667     21672
     21663     21662     21665     21666     21663     21662     21665     21667
     21664     21662     21665     21666     21664     21662     21665     21667
     21665     21667     21668     21669     21665     21667     21668     21670
     21665     21667     21668     21671     21665     21667     21672     21673
     21665     21667     21672     21674     21665     21667     21672     21675
     21666     21665     21667     21668     21666     21665     21667     21672
     21667     21672     21675     21676     21667     21672     21675     21677
     21668     21667     21672     21673     21668     21667     21672     21674
     21668     21667     21672     21675     21669     21668     21667     21672
     21670     21668     21667     21672     21671     21668     21667     21672
     21673     21672     21675     21676     21673     21672     21675     21677
     21674     21672     21675     21676     21674     21672     21675     21677
     21678     21684     21687     21688     21678     21684     21687     21689
     21678     21684     21687     21690     21679     21678     21680     21681
     21679     21678     21680     21682     21679     21678     21680     21683
     21679     21678     21684     21685     21679     21678     21684     21686
     21679     21678     21684     21687     21680     21678     21684     21685
     21680     21678     21684     21686     21680     21678     21684     21687
     21681     21680     21678     21684     21682     21680     21678     21684
     21683     21680     21678     21684     21684     21687     21690     21691
     21684     21687     21690     21692     21684     21687     21690     21693
     21685     21684     21687     21688     21685     21684     21687     21689
     21685     21684     21687     21690     21686     21684     21687     21688
     21686     21684     21687     21689     21686     21684     21687     21690
     21687     21690     21693     21694     21687     21690     21693     21695
     21687     21690     21693     21699     21688     21687     21690     21691
     21688     21687     21690     21692     21688     21687     21690     21693
     21689     21687     21690     21691     21689     21687     21690     21692
     21689     21687     21690     21693     21690     21693     21695     21696
     21690     21693     21695     21697     21690     21693     21695     21698
     21690     21693     21699     21700     21690     21693     21699     21701
     21690     21693     21699     21702     21691     21690     21693     21694
     21691     21690     21693     21695     21691     21690     21693     21699
     21692     21690     21693     21694     21692     21690     21693     21695
     21692     21690     21693     21699     21694     21693     21695     21696
     21694     21693     21695     21697     21694     21693     21695     21698
     21694     21693     21699     21700     21694     21693     21699     21701
     21694     21693     21699     21702     21695     21693     21699     21700
     21695     21693     21699     21701     21695     21693     21699     21702
     21696     21695     21693     21699     21697     21695     21693     21699
     21698     21695     21693     21699     21703     21716     21719     21720
     21703     21716     21719     21721     21703     21716     21719     21726
     21704     21703     21708     21709     21704     21703     21708     21710
     21704     21703     21708     21711     21704     21703     21712     21713
     21704     21703     21712     21714     21704     21703     21712     21715
     21704     21703     21716     21717     21704     21703     21716     21718
     21704     21703     21716     21719     21705     21704     21703     21708
     21705     21704     21703     21712     21705     21704     21703     21716
     21706     21704     21703     21708     21706     21704     21703     21712
     21706     21704     21703     21716     21707     21704     21703     21708
     21707     21704     21703     21712     21707     21704     21703     21716
     21708     21703     21712     21713     21708     21703     21712     21714
     21708     21703     21712     21715     21708     21703     21716     21717
     21708     21703     21716     21718     21708     21703     21716     21719
     21709     21708     21703     21712     21709     21708     21703     21716
     21710     21708     21703     21712     21710     21708     21703     21716
     21711     21708     21703     21712     21711     21708     21703     21716
     21712     21703     21716     21717     21712     21703     21716     21718
     21712     21703     21716     21719     21713     21712     21703     21716
     21714     21712     21703     21716     21715     21712     21703     21716
     21716     21719     21726     21722     21717     21716     21719     21720
     21717     21716     21719     21721     21717     21716     21719     21726
     21718     21716     21719     21720     21718     21716     21719     21721
     21718     21716     21719     21726     21719     21726     21722     21723
     21719     21726     21722     21724     21719     21726     21722     21725
     21720     21719     21726     21722     21721     21719     21726     21722
     21722     21725     21727     21728     21722     21725     21727     21729
     21722     21725     21727     21732     21723     21722     21725     21727
     21724     21722     21725     21727     21725     21727     21732     21730
     21725     21727     21732     21733     21725     21727     21732     21734
     21726     21722     21725     21727     21727     21732     21730     21731
     21727     21732     21730     21782     21727     21732     21734     21735
     21727     21732     21734     21736     21727     21732     21734     21738
     21728     21727     21732     21730     21728     21727     21732     21733
     21728     21727     21732     21734     21729     21727     21732     21730
     21729     21727     21732     21733     21729     21727     21732     21734
     21730     21732     21734     21735     21730     21732     21734     21736
     21730     21732     21734     21738     21730     21782     21784     21785
     21730     21782     21784     21786     21730     21782     21784     21787
     21731     21730     21732     21733     21731     21730     21732     21734
     21731     21730     21782     21783     21731     21730     21782     21784
     21732     21730     21782     21783     21732     21730     21782     21784
     21732     21734     21736     21737     21732     21734     21738     21739
     21732     21734     21738     21740     21733     21732     21730     21782
     21733     21732     21734     21735     21733     21732     21734     21736
     21733     21732     21734     21738     21734     21732     21730     21782
     21734     21738     21740     21741     21734     21738     21740     21742
     21735     21734     21736     21737     21735     21734     21738     21739
     21735     21734     21738     21740     21736     21734     21738     21739
     21736     21734     21738     21740     21737     21736     21734     21738
     21738     21740     21742     21743     21738     21740     21742     21744
     21738     21740     21742     21745     21739     21738     21740     21741
     21739     21738     21740     21742     21740     21742     21745     21746
     21740     21742     21745     21747     21740     21742     21745     21748
     21741     21740     21742     21743     21741     21740     21742     21744
     21741     21740     21742     21745     21742     21745     21748     21749
     21742     21745     21748     21750     21742     21745     21748     21751
     21743     21742     21745     21746     21743     21742     21745     21747
     21743     21742     21745     21748     21744     21742     21745     21746
     21744     21742     21745     21747     21744     21742     21745     21748
     21745     21748     21751     21752     21745     21748     21751     21753
     21745     21748     21751     21754     21746     21745     21748     21749
     21746     21745     21748     21750     21746     21745     21748     21751
     21747     21745     21748     21749     21747     21745     21748     21750
     21747     21745     21748     21751     21748     21751     21754     21755
     21748     21751     21754     21756     21748     21751     21754     21757
     21749     21748     21751     21752     21749     21748     21751     21753
     21749     21748     21751     21754     21750     21748     21751     21752
     21750     21748     21751     21753     21750     21748     21751     21754
     21751     21754     21757     21758     21751     21754     21757     21759
     21751     21754     21757     21760     21752     21751     21754     21755
     21752     21751     21754     21756     21752     21751     21754     21757
     21753     21751     21754     21755     21753     21751     21754     21756
     21753     21751     21754     21757     21754     21757     21760     21761
     21754     21757     21760     21762     21754     21757     21760     21763
     21755     21754     21757     21758     21755     21754     21757     21759
     21755     21754     21757     21760     21756     21754     21757     21758
     21756     21754     21757     21759     21756     21754     21757     21760
     21757     21760     21763     21764     21757     21760     21763     21765
     21757     21760     21763     21766     21758     21757     21760     21761
     21758     21757     21760     21762     21758     21757     21760     21763
     21759     21757     21760     21761     21759     21757     21760     21762
     21759     21757     21760     21763     21760     21763     21766     21767
     21760     21763     21766     21768     21760     21763     21766     21769
     21761     21760     21763     21764     21761     21760     21763     21765
     21761     21760     21763     21766     21762     21760     21763     21764
     21762     21760     21763     21765     21762     21760     21763     21766
     21763     21766     21769     21770     21763     21766     21769     21771
     21763     21766     21769     21772     21764     21763     21766     21767
     21764     21763     21766     21768     21764     21763     21766     21769
     21765     21763     21766     21767     21765     21763     21766     21768
     21765     21763     21766     21769     21766     21769     21772     21773
     21766     21769     21772     21774     21766     21769     21772     21775
     21767     21766     21769     21770     21767     21766     21769     21771
     21767     21766     21769     21772     21768     21766     21769     21770
     21768     21766     21769     21771     21768     21766     21769     21772
     21769     21772     21775     21776     21769     21772     21775     21777
     21769     21772     21775     21778     21770     21769     21772     21773
     21770     21769     21772     21774     21770     21769     21772     21775
     21771     21769     21772     21773     21771     21769     21772     21774
     21771     21769     21772     21775     21772     21775     21778     21779
     21772     21775     21778     21780     21772     21775     21778     21781
     21773     21772     21775     21776     21773     21772     21775     21777
     21773     21772     21775     21778     21774     21772     21775     21776
     21774     21772     21775     21777     21774     21772     21775     21778
     21776     21775     21778     21779     21776     21775     21778     21780
     21776     21775     21778     21781     21777     21775     21778     21779
     21777     21775     21778     21780     21777     21775     21778     21781
     21782     21784     21787     21788     21782     21784     21787     21789
     21782     21784     21787     21790     21783     21782     21784     21785
     21783     21782     21784     21786     21783     21782     21784     21787
     21784     21787     21790     21791     21784     21787     21790     21792
     21784     21787     21790     21793     21785     21784     21787     21788
     21785     21784     21787     21789     21785     21784     21787     21790
     21786     21784     21787     21788     21786     21784     21787     21789
     21786     21784     21787     21790     21787     21790     21793     21794
     21787     21790     21793     21795     21787     21790     21793     21796
     21788     21787     21790     21791     21788     21787     21790     21792
     21788     21787     21790     21793     21789     21787     21790     21791
     21789     21787     21790     21792     21789     21787     21790     21793
     21790     21793     21796     21797     21790     21793     21796     21798
     21790     21793     21796     21799     21791     21790     21793     21794
     21791     21790     21793     21795     21791     21790     21793     21796
     21792     21790     21793     21794     21792     21790     21793     21795
     21792     21790     21793     21796     21793     21796     21799     21800
     21793     21796     21799     21801     21793     21796     21799     21802
     21794     21793     21796     21797     21794     21793     21796     21798
     21794     21793     21796     21799     21795     21793     21796     21797
     21795     21793     21796     21798     21795     21793     21796     21799
     21796     21799     21802     21803     21796     21799     21802     21804
     21796     21799     21802     21805     21797     21796     21799     21800
     21797     21796     21799     21801     21797     21796     21799     21802
     21798     21796     21799     21800     21798     21796     21799     21801
     21798     21796     21799     21802     21799     21802     21805     21806
     21799     21802     21805     21807     21800     21799     21802     21803
     21800     21799     21802     21804     21800     21799     21802     21805
     21801     21799     21802     21803     21801     21799     21802     21804
     21801     21799     21802     21805     21802     21805     21807     21808
     21802     21805     21807     21809     21803     21802     21805     21806
     21803     21802     21805     21807     21804     21802     21805     21806
     21804     21802     21805     21807     21805     21807     21809     21810
     21805     21807     21809     21811     21805     21807     21809     21812
     21806     21805     21807     21808     21806     21805     21807     21809
     21807     21809     21812     21813     21807     21809     21812     21814
     21807     21809     21812     21815     21808     21807     21809     21810
     21808     21807     21809     21811     21808     21807     21809     21812
     21809     21812     21815     21816     21809     21812     21815     21817
     21809     21812     21815     21818     21810     21809     21812     21813
     21810     21809     21812     21814     21810     21809     21812     21815
     21811     21809     21812     21813     21811     21809     21812     21814
     21811     21809     21812     21815     21812     21815     21818     21819
     21812     21815     21818     21820     21812     21815     21818     21821
     21813     21812     21815     21816     21813     21812     21815     21817
     21813     21812     21815     21818     21814     21812     21815     21816
     21814     21812     21815     21817     21814     21812     21815     21818
     21815     21818     21821     21822     21815     21818     21821     21823
     21815     21818     21821     21824     21816     21815     21818     21819
     21816     21815     21818     21820     21816     21815     21818     21821
     21817     21815     21818     21819     21817     21815     21818     21820
     21817     21815     21818     21821     21818     21821     21824     21825
     21818     21821     21824     21826     21818     21821     21824     21827
     21819     21818     21821     21822     21819     21818     21821     21823
     21819     21818     21821     21824     21820     21818     21821     21822
     21820     21818     21821     21823     21820     21818     21821     21824
     21821     21824     21827     21828     21821     21824     21827     21829
     21821     21824     21827     21830     21822     21821     21824     21825
     21822     21821     21824     21826     21822     21821     21824     21827
     21823     21821     21824     21825     21823     21821     21824     21826
     21823     21821     21824     21827     21824     21827     21830     21831
     21824     21827     21830     21832     21824     21827     21830     21833
     21825     21824     21827     21828     21825     21824     21827     21829
     21825     21824     21827     21830     21826     21824     21827     21828
     21826     21824     21827     21829     21826     21824     21827     21830
     21828     21827     21830     21831     21828     21827     21830     21832
     21828     21827     21830     21833     21829     21827     21830     21831
     21829     21827     21830     21832     21829     21827     21830     21833
     21834     21847     21850     21851     21834     21847     21850     21852
     21834     21847     21850     21857     21835     21834     21839     21840
     21835     21834     21839     21841     21835     21834     21839     21842
     21835     21834     21843     21844     21835     21834     21843     21845
     21835     21834     21843     21846     21835     21834     21847     21848
     21835     21834     21847     21849     21835     21834     21847     21850
     21836     21835     21834     21839     21836     21835     21834     21843
     21836     21835     21834     21847     21837     21835     21834     21839
     21837     21835     21834     21843     21837     21835     21834     21847
     21838     21835     21834     21839     21838     21835     21834     21843
     21838     21835     21834     21847     21839     21834     21843     21844
     21839     21834     21843     21845     21839     21834     21843     21846
     21839     21834     21847     21848     21839     21834     21847     21849
     21839     21834     21847     21850     21840     21839     21834     21843
     21840     21839     21834     21847     21841     21839     21834     21843
     21841     21839     21834     21847     21842     21839     21834     21843
     21842     21839     21834     21847     21843     21834     21847     21848
     21843     21834     21847     21849     21843     21834     21847     21850
     21844     21843     21834     21847     21845     21843     21834     21847
     21846     21843     21834     21847     21847     21850     21857     21853
     21848     21847     21850     21851     21848     21847     21850     21852
     21848     21847     21850     21857     21849     21847     21850     21851
     21849     21847     21850     21852     21849     21847     21850     21857
     21850     21857     21853     21854     21850     21857     21853     21855
     21850     21857     21853     21856     21851     21850     21857     21853
     21852     21850     21857     21853     21853     21856     21858     21859
     21853     21856     21858     21860     21853     21856     21858     21863
     21854     21853     21856     21858     21855     21853     21856     21858
     21856     21858     21863     21861     21856     21858     21863     21864
     21856     21858     21863     21865     21857     21853     21856     21858
     21858     21863     21861     21862     21858     21863     21861     21913
     21858     21863     21865     21866     21858     21863     21865     21867
     21858     21863     21865     21869     21859     21858     21863     21861
     21859     21858     21863     21864     21859     21858     21863     21865
     21860     21858     21863     21861     21860     21858     21863     21864
     21860     21858     21863     21865     21861     21863     21865     21866
     21861     21863     21865     21867     21861     21863     21865     21869
     21861     21913     21915     21916     21861     21913     21915     21917
     21861     21913     21915     21918     21862     21861     21863     21864
     21862     21861     21863     21865     21862     21861     21913     21914
     21862     21861     21913     21915     21863     21861     21913     21914
     21863     21861     21913     21915     21863     21865     21867     21868
     21863     21865     21869     21870     21863     21865     21869     21871
     21864     21863     21861     21913     21864     21863     21865     21866
     21864     21863     21865     21867     21864     21863     21865     21869
     21865     21863     21861     21913     21865     21869     21871     21872
     21865     21869     21871     21873     21866     21865     21867     21868
     21866     21865     21869     21870     21866     21865     21869     21871
     21867     21865     21869     21870     21867     21865     21869     21871
     21868     21867     21865     21869     21869     21871     21873     21874
     21869     21871     21873     21875     21869     21871     21873     21876
     21870     21869     21871     21872     21870     21869     21871     21873
     21871     21873     21876     21877     21871     21873     21876     21878
     21871     21873     21876     21879     21872     21871     21873     21874
     21872     21871     21873     21875     21872     21871     21873     21876
     21873     21876     21879     21880     21873     21876     21879     21881
     21873     21876     21879     21882     21874     21873     21876     21877
     21874     21873     21876     21878     21874     21873     21876     21879
     21875     21873     21876     21877     21875     21873     21876     21878
     21875     21873     21876     21879     21876     21879     21882     21883
     21876     21879     21882     21884     21876     21879     21882     21885
     21877     21876     21879     21880     21877     21876     21879     21881
     21877     21876     21879     21882     21878     21876     21879     21880
     21878     21876     21879     21881     21878     21876     21879     21882
     21879     21882     21885     21886     21879     21882     21885     21887
     21879     21882     21885     21888     21880     21879     21882     21883
     21880     21879     21882     21884     21880     21879     21882     21885
     21881     21879     21882     21883     21881     21879     21882     21884
     21881     21879     21882     21885     21882     21885     21888     21889
     21882     21885     21888     21890     21882     21885     21888     21891
     21883     21882     21885     21886     21883     21882     21885     21887
     21883     21882     21885     21888     21884     21882     21885     21886
     21884     21882     21885     21887     21884     21882     21885     21888
     21885     21888     21891     21892     21885     21888     21891     21893
     21885     21888     21891     21894     21886     21885     21888     21889
     21886     21885     21888     21890     21886     21885     21888     21891
     21887     21885     21888     21889     21887     21885     21888     21890
     21887     21885     21888     21891     21888     21891     21894     21895
     21888     21891     21894     21896     21888     21891     21894     21897
     21889     21888     21891     21892     21889     21888     21891     21893
     21889     21888     21891     21894     21890     21888     21891     21892
     21890     21888     21891     21893     21890     21888     21891     21894
     21891     21894     21897     21898     21891     21894     21897     21899
     21891     21894     21897     21900     21892     21891     21894     21895
     21892     21891     21894     21896     21892     21891     21894     21897
     21893     21891     21894     21895     21893     21891     21894     21896
     21893     21891     21894     21897     21894     21897     21900     21901
     21894     21897     21900     21902     21894     21897     21900     21903
     21895     21894     21897     21898     21895     21894     21897     21899
     21895     21894     21897     21900     21896     21894     21897     21898
     21896     21894     21897     21899     21896     21894     21897     21900
     21897     21900     21903     21904     21897     21900     21903     21905
     21897     21900     21903     21906     21898     21897     21900     21901
     21898     21897     21900     21902     21898     21897     21900     21903
     21899     21897     21900     21901     21899     21897     21900     21902
     21899     21897     21900     21903     21900     21903     21906     21907
     21900     21903     21906     21908     21900     21903     21906     21909
     21901     21900     21903     21904     21901     21900     21903     21905
     21901     21900     21903     21906     21902     21900     21903     21904
     21902     21900     21903     21905     21902     21900     21903     21906
     21903     21906     21909     21910     21903     21906     21909     21911
     21903     21906     21909     21912     21904     21903     21906     21907
     21904     21903     21906     21908     21904     21903     21906     21909
     21905     21903     21906     21907     21905     21903     21906     21908
     21905     21903     21906     21909     21907     21906     21909     21910
     21907     21906     21909     21911     21907     21906     21909     21912
     21908     21906     21909     21910     21908     21906     21909     21911
     21908     21906     21909     21912     21913     21915     21918     21919
     21913     21915     21918     21920     21913     21915     21918     21921
     21914     21913     21915     21916     21914     21913     21915     21917
     21914     21913     21915     21918     21915     21918     21921     21922
     21915     21918     21921     21923     21915     21918     21921     21924
     21916     21915     21918     21919     21916     21915     21918     21920
     21916     21915     21918     21921     21917     21915     21918     21919
     21917     21915     21918     21920     21917     21915     21918     21921
     21918     21921     21924     21925     21918     21921     21924     21926
     21918     21921     21924     21927     21919     21918     21921     21922
     21919     21918     21921     21923     21919     21918     21921     21924
     21920     21918     21921     21922     21920     21918     21921     21923
     21920     21918     21921     21924     21921     21924     21927     21928
     21921     21924     21927     21929     21921     21924     21927     21930
     21922     21921     21924     21925     21922     21921     21924     21926
     21922     21921     21924     21927     21923     21921     21924     21925
     21923     21921     21924     21926     21923     21921     21924     21927
     21924     21927     21930     21931     21924     21927     21930     21932
     21924     21927     21930     21933     21925     21924     21927     21928
     21925     21924     21927     21929     21925     21924     21927     21930
     21926     21924     21927     21928     21926     21924     21927     21929
     21926     21924     21927     21930     21927     21930     21933     21934
     21927     21930     21933     21935     21927     21930     21933     21936
     21928     21927     21930     21931     21928     21927     21930     21932
     21928     21927     21930     21933     21929     21927     21930     21931
     21929     21927     21930     21932     21929     21927     21930     21933
     21930     21933     21936     21937     21930     21933     21936     21938
     21931     21930     21933     21934     21931     21930     21933     21935
     21931     21930     21933     21936     21932     21930     21933     21934
     21932     21930     21933     21935     21932     21930     21933     21936
     21933     21936     21938     21939     21933     21936     21938     21940
     21934     21933     21936     21937     21934     21933     21936     21938
     21935     21933     21936     21937     21935     21933     21936     21938
     21936     21938     21940     21941     21936     21938     21940     21942
     21936     21938     21940     21943     21937     21936     21938     21939
     21937     21936     21938     21940     21938     21940     21943     21944
     21938     21940     21943     21945     21938     21940     21943     21946
     21939     21938     21940     21941     21939     21938     21940     21942
     21939     21938     21940     21943     21940     21943     21946     21947
     21940     21943     21946     21948     21940     21943     21946     21949
     21941     21940     21943     21944     21941     21940     21943     21945
     21941     21940     21943     21946     21942     21940     21943     21944
     21942     21940     21943     21945     21942     21940     21943     21946
     21943     21946     21949     21950     21943     21946     21949     21951
     21943     21946     21949     21952     21944     21943     21946     21947
     21944     21943     21946     21948     21944     21943     21946     21949
     21945     21943     21946     21947     21945     21943     21946     21948
     21945     21943     21946     21949     21946     21949     21952     21953
     21946     21949     21952     21954     21946     21949     21952     21955
     21947     21946     21949     21950     21947     21946     21949     21951
     21947     21946     21949     21952     21948     21946     21949     21950
     21948     21946     21949     21951     21948     21946     21949     21952
     21949     21952     21955     21956     21949     21952     21955     21957
     21949     21952     21955     21958     21950     21949     21952     21953
     21950     21949     21952     21954     21950     21949     21952     21955
     21951     21949     21952     21953     21951     21949     21952     21954
     21951     21949     21952     21955     21952     21955     21958     21959
     21952     21955     21958     21960     21952     21955     21958     21961
     21953     21952     21955     21956     21953     21952     21955     21957
     21953     21952     21955     21958     21954     21952     21955     21956
     21954     21952     21955     21957     21954     21952     21955     21958
     21955     21958     21961     21962     21955     21958     21961     21963
     21955     21958     21961     21964     21956     21955     21958     21959
     21956     21955     21958     21960     21956     21955     21958     21961
     21957     21955     21958     21959     21957     21955     21958     21960
     21957     21955     21958     21961     21959     21958     21961     21962
     21959     21958     21961     21963     21959     21958     21961     21964
     21960     21958     21961     21962     21960     21958     21961     21963
     21960     21958     21961     21964     21965     21969     21972     21973
     21965     21969     21972     22003     21965     22011     22008     22003
     21965     22011     22008     22009     21965     22011     22008     22010
     21966     21965     21967     21968     21966     21965     21969     21970
     21966     21965     21969     21971     21966     21965     21969     21972
     21966     21965     22011     22008     21966     21965     22011     22012
     21966     21965     22011     22013     21967     21965     21969     21970
     21967     21965     21969     21971     21967     21965     21969     21972
     21967     21965     22011     22008     21967     21965     22011     22012
     21967     21965     22011     22013     21968     21967     21965     21969
     21968     21967     21965     22011     21969     21965     22011     22008
     21969     21965     22011     22012     21969     21965     22011     22013
     21969     21972     21973     21974     21969     21972     21973     21975
     21969     21972     22003     22001     21969     21972     22003     22004
     21969     21972     22003     22008     21970     21969     21965     22011
     21970     21969     21972     21973     21970     21969     21972     22003
     21971     21969     21965     22011     21971     21969     21972     21973
     21971     21969     21972     22003     21972     21969     21965     22011
     21972     21973     21975     21976     21972     21973     21975     21977
     21972     21973     21975     21978     21972     22003     22001     21978
     21972     22003     22001     21998     21972     22003     22001     22002
     21972     22003     22004     22005     21972     22003     22004     22006
     21972     22003     22004     22007     21972     22003     22008     22009
     21972     22003     22008     22010     21972     22003     22008     22011
     21973     21972     22003     22001     21973     21972     22003     22004
     21973     21972     22003     22008     21973     21975     21978     21979
     21973     21975     21978     21980     21973     21975     21978     22001
     21974     21973     21972     22003     21974     21973     21975     21976
     21974     21973     21975     21977     21974     21973     21975     21978
     21975     21973     21972     22003     21975     21978     21980     21981
     21975     21978     21980     21982     21975     21978     21980     21990
     21975     21978     22001     21998     21975     21978     22001     22002
     21975     21978     22001     22003     21976     21975     21978     21979
     21976     21975     21978     21980     21976     21975     21978     22001
     21977     21975     21978     21979     21977     21975     21978     21980
     21977     21975     21978     22001     21978     21980     21982     21983
     21978     21980     21982     21984     21978     21980     21982     21985
     21978     21980     21990     21988     21978     21980     21990     21991
     21978     21980     21990     21995     21978     22001     21998     21995
     21978     22001     21998     21999     21978     22001     21998     22000
     21978     22001     22003     22004     21978     22001     22003     22008
     21979     21978     21980     21981     21979     21978     21980     21982
     21979     21978     21980     21990     21979     21978     22001     21998
     21979     21978     22001     22002     21979     21978     22001     22003
     21980     21978     22001     21998     21980     21978     22001     22002
     21980     21978     22001     22003     21980     21982     21985     21986
     21980     21982     21985     21987     21980     21982     21985     21988
     21980     21990     21988     21985     21980     21990     21988     21989
     21980     21990     21988     22014     21980     21990     21991     21992
     21980     21990     21991     21993     21980     21990     21991     21994
     21980     21990     21995     21996     21980     21990     21995     21997
     21980     21990     21995     21998     21981     21980     21978     22001
     21981     21980     21982     21983     21981     21980     21982     21984
     21981     21980     21982     21985     21981     21980     21990     21988
     21981     21980     21990     21991     21981     21980     21990     21995
     21982     21980     21978     22001     21982     21980     21990     21988
     21982     21980     21990     21991     21982     21980     21990     21995
     21982     21985     21988     21989     21982     21985     21988     21990
     21982     21985     21988     22014     21983     21982     21980     21990
     21983     21982     21985     21986     21983     21982     21985     21987
     21983     21982     21985     21988     21984     21982     21980     21990
     21984     21982     21985     21986     21984     21982     21985     21987
     21984     21982     21985     21988     21985     21982     21980     21990
     21985     21988     21990     21991     21985     21988     21990     21995
     21985     21988     22014     22015     21985     21988     22014     22016
     21985     21988     22014     22020     21986     21985     21988     21989
     21986     21985     21988     21990     21986     21985     21988     22014
     21987     21985     21988     21989     21987     21985     21988     21990
     21987     21985     21988     22014     21988     21990     21991     21992
     21988     21990     21991     21993     21988     21990     21991     21994
     21988     21990     21995     21996     21988     21990     21995     21997
     21988     21990     21995     21998     21988     22014     22016     22017
     21988     22014     22016     22018     21988     22014     22016     22019
     21988     22014     22020     22021     21988     22014     22020     22022
     21988     22014     22020     22023     21989     21988     21990     21991
     21989     21988     21990     21995     21989     21988     22014     22015
     21989     21988     22014     22016     21989     21988     22014     22020
     21990     21980     21978     22001     21990     21988     22014     22015
     21990     21988     22014     22016     21990     21988     22014     22020
     21990     21995     21998     21999     21990     21995     21998     22000
     21990     21995     21998     22001     21991     21990     21988     22014
     21991     21990     21995     21996     21991     21990     21995     21997
     21991     21990     21995     21998     21992     21991     21990     21995
     21993     21991     21990     21995     21994     21991     21990     21995
     21995     21990     21988     22014     21995     21998     22001     22002
     21995     21998     22001     22003     21996     21995     21998     21999
     21996     21995     21998     22000     21996     21995     21998     22001
     21997     21995     21998     21999     21997     21995     21998     22000
     21997     21995     21998     22001     21998     22001     22003     22004
     21998     22001     22003     22008     21999     21998     22001     22002
     21999     21998     22001     22003     22000     21998     22001     22002
     22000     21998     22001     22003     22001     22003     22004     22005
     22001     22003     22004     22006     22001     22003     22004     22007
     22001     22003     22008     22009     22001     22003     22008     22010
     22001     22003     22008     22011     22002     22001     22003     22004
     22002     22001     22003     22008     22003     22008     22011     22012
     22003     22008     22011     22013     22004     22003     22008     22009
     22004     22003     22008     22010     22004     22003     22008     22011
     22005     22004     22003     22008     22006     22004     22003     22008
     22007     22004     22003     22008     22009     22008     22011     22012
     22009     22008     22011     22013     22010     22008     22011     22012
     22010     22008     22011     22013     22014     22020     22023     22024
     22014     22020     22023     22025     22014     22020     22023     22026
     22015     22014     22016     22017     22015     22014     22016     22018
     22015     22014     22016     22019     22015     22014     22020     22021
     22015     22014     22020     22022     22015     22014     22020     22023
     22016     22014     22020     22021     22016     22014     22020     22022
     22016     22014     22020     22023     22017     22016     22014     22020
     22018     22016     22014     22020     22019     22016     22014     22020
     22020     22023     22026     22027     22020     22023     22026     22028
     22020     22023     22026     22029     22021     22020     22023     22024
     22021     22020     22023     22025     22021     22020     22023     22026
     22022     22020     22023     22024     22022     22020     22023     22025
     22022     22020     22023     22026     22023     22026     22029     22030
     22023     22026     22029     22031     22023     22026     22029     22035
     22024     22023     22026     22027     22024     22023     22026     22028
     22024     22023     22026     22029     22025     22023     22026     22027
     22025     22023     22026     22028     22025     22023     22026     22029
     22026     22029     22031     22032     22026     22029     22031     22033
     22026     22029     22031     22034     22026     22029     22035     22036
     22026     22029     22035     22037     22026     22029     22035     22038
     22027     22026     22029     22030     22027     22026     22029     22031
     22027     22026     22029     22035     22028     22026     22029     22030
     22028     22026     22029     22031     22028     22026     22029     22035
     22030     22029     22031     22032     22030     22029     22031     22033
     22030     22029     22031     22034     22030     22029     22035     22036
     22030     22029     22035     22037     22030     22029     22035     22038
     22031     22029     22035     22036     22031     22029     22035     22037
     22031     22029     22035     22038     22032     22031     22029     22035
     22033     22031     22029     22035     22034     22031     22029     22035
     22039     22040     22055     22056     22039     22040     22055     22057
     22039     22040     22055     22061     22040     22039     22043     22044
     22040     22039     22043     22045     22040     22039     22043     22046
     22040     22039     22047     22048     22040     22039     22047     22049
     22040     22039     22047     22050     22040     22039     22051     22052
     22040     22039     22051     22053     22040     22039     22051     22054
     22040     22055     22061     22058     22041     22040     22039     22043
     22041     22040     22039     22047     22041     22040     22039     22051
     22041     22040     22055     22056     22041     22040     22055     22057
     22041     22040     22055     22061     22042     22040     22039     22043
     22042     22040     22039     22047     22042     22040     22039     22051
     22042     22040     22055     22056     22042     22040     22055     22057
     22042     22040     22055     22061     22043     22039     22040     22055
     22043     22039     22047     22048     22043     22039     22047     22049
     22043     22039     22047     22050     22043     22039     22051     22052
     22043     22039     22051     22053     22043     22039     22051     22054
     22044     22043     22039     22047     22044     22043     22039     22051
     22045     22043     22039     22047     22045     22043     22039     22051
     22046     22043     22039     22047     22046     22043     22039     22051
     22047     22039     22040     22055     22047     22039     22051     22052
     22047     22039     22051     22053     22047     22039     22051     22054
     22048     22047     22039     22051     22049     22047     22039     22051
     22050     22047     22039     22051     22051     22039     22040     22055
     22055     22061     22058     22059     22055     22061     22058     22060
     22055     22061     22058     22062     22056     22055     22061     22058
     22057     22055     22061     22058     22058     22062     22063     22064
     22058     22062     22063     22065     22058     22062     22063     22066
     22059     22058     22062     22063     22060     22058     22062     22063
     22061     22058     22062     22063     22062     22063     22066     22067
     22062     22063     22066     22068     22062     22063     22066     22074
     22063     22066     22068     22069     22063     22066     22074     22075
     22063     22066     22074     22076     22063     22066     22074     22077
     22064     22063     22066     22067     22064     22063     22066     22068
     22064     22063     22066     22074     22065     22063     22066     22067
     22065     22063     22066     22068     22065     22063     22066     22074
     22066     22068     22069     22070     22066     22068     22069     22071
     22066     22074     22077     22078     22067     22066     22068     22069
     22067     22066     22074     22075     22067     22066     22074     22076
     22067     22066     22074     22077     22068     22066     22074     22075
     22068     22066     22074     22076     22068     22066     22074     22077
     22068     22069     22071     22072     22068     22069     22071     22073
     22068     22069     22071     22083     22069     22068     22066     22074
     22069     22071     22083     22084     22069     22071     22083     22085
     22069     22071     22083     22086     22070     22069     22071     22072
     22070     22069     22071     22073     22070     22069     22071     22083
     22071     22083     22086     22087     22071     22083     22086     22088
     22071     22083     22086     22089     22072     22071     22083     22084
     22072     22071     22083     22085     22072     22071     22083     22086
     22073     22071     22083     22084     22073     22071     22083     22085
     22073     22071     22083     22086     22074     22077     22078     22079
     22074     22077     22078     22080     22075     22074     22077     22078
     22076     22074     22077     22078     22077     22078     22080     22081
     22077     22078     22080     22082     22077     22078     22080     22130
     22078     22080     22130     22131     22078     22080     22130     22132
     22078     22080     22130     22133     22079     22078     22080     22081
     22079     22078     22080     22082     22079     22078     22080     22130
     22080     22130     22133     22134     22080     22130     22133     22135
     22080     22130     22133     22136     22081     22080     22130     22131
     22081     22080     22130     22132     22081     22080     22130     22133
     22082     22080     22130     22131     22082     22080     22130     22132
     22082     22080     22130     22133     22083     22086     22089     22090
     22083     22086     22089     22091     22084     22083     22086     22087
     22084     22083     22086     22088     22084     22083     22086     22089
     22085     22083     22086     22087     22085     22083     22086     22088
     22085     22083     22086     22089     22086     22089     22091     22092
     22086     22089     22091     22093     22087     22086     22089     22090
     22087     22086     22089     22091     22088     22086     22089     22090
     22088     22086     22089     22091     22089     22091     22093     22094
     22089     22091     22093     22095     22089     22091     22093     22096
     22090     22089     22091     22092     22090     22089     22091     22093
     22091     22093     22096     22097     22091     22093     22096     22098
     22092     22091     22093     22094     22092     22091     22093     22095
     22092     22091     22093     22096     22093     22096     22098     22099
     22093     22096     22098     22100     22094     22093     22096     22097
     22094     22093     22096     22098     22095     22093     22096     22097
     22095     22093     22096     22098     22096     22098     22100     22101
     22096     22098     22100     22102     22096     22098     22100     22103
     22097     22096     22098     22099     22097     22096     22098     22100
     22098     22100     22103     22104     22098     22100     22103     22105
     22099     22098     22100     22101     22099     22098     22100     22102
     22099     22098     22100     22103     22100     22103     22105     22106
     22100     22103     22105     22107     22101     22100     22103     22104
     22101     22100     22103     22105     22102     22100     22103     22104
     22102     22100     22103     22105     22103     22105     22107     22108
     22103     22105     22107     22109     22103     22105     22107     22110
     22104     22103     22105     22106     22104     22103     22105     22107
     22105     22107     22110     22111     22105     22107     22110     22112
     22106     22105     22107     22108     22106     22105     22107     22109
     22106     22105     22107     22110     22107     22110     22112     22113
     22107     22110     22112     22114     22108     22107     22110     22111
     22108     22107     22110     22112     22109     22107     22110     22111
     22109     22107     22110     22112     22110     22112     22114     22115
     22110     22112     22114     22116     22110     22112     22114     22117
     22111     22110     22112     22113     22111     22110     22112     22114
     22112     22114     22117     22118     22112     22114     22117     22119
     22112     22114     22117     22120     22113     22112     22114     22115
     22113     22112     22114     22116     22113     22112     22114     22117
     22114     22117     22120     22121     22114     22117     22120     22122
     22114     22117     22120     22123     22115     22114     22117     22118
     22115     22114     22117     22119     22115     22114     22117     22120
     22116     22114     22117     22118     22116     22114     22117     22119
     22116     22114     22117     22120     22117     22120     22123     22124
     22117     22120     22123     22125     22117     22120     22123     22126
     22118     22117     22120     22121     22118     22117     22120     22122
     22118     22117     22120     22123     22119     22117     22120     22121
     22119     22117     22120     22122     22119     22117     22120     22123
     22120     22123     22126     22127     22120     22123     22126     22128
     22120     22123     22126     22129     22121     22120     22123     22124
     22121     22120     22123     22125     22121     22120     22123     22126
     22122     22120     22123     22124     22122     22120     22123     22125
     22122     22120     22123     22126     22124     22123     22126     22127
     22124     22123     22126     22128     22124     22123     22126     22129
     22125     22123     22126     22127     22125     22123     22126     22128
     22125     22123     22126     22129     22130     22133     22136     22137
     22130     22133     22136     22138     22130     22133     22136     22139
     22131     22130     22133     22134     22131     22130     22133     22135
     22131     22130     22133     22136     22132     22130     22133     22134
     22132     22130     22133     22135     22132     22130     22133     22136
     22133     22136     22139     22140     22133     22136     22139     22141
     22133     22136     22139     22142     22134     22133     22136     22137
     22134     22133     22136     22138     22134     22133     22136     22139
     22135     22133     22136     22137     22135     22133     22136     22138
     22135     22133     22136     22139     22136     22139     22142     22143
     22136     22139     22142     22144     22136     22139     22142     22145
     22137     22136     22139     22140     22137     22136     22139     22141
     22137     22136     22139     22142     22138     22136     22139     22140
     22138     22136     22139     22141     22138     22136     22139     22142
     22139     22142     22145     22146     22139     22142     22145     22147
     22139     22142     22145     22148     22140     22139     22142     22143
     22140     22139     22142     22144     22140     22139     22142     22145
     22141     22139     22142     22143     22141     22139     22142     22144
     22141     22139     22142     22145     22142     22145     22148     22149
     22142     22145     22148     22150     22142     22145     22148     22151
     22143     22142     22145     22146     22143     22142     22145     22147
     22143     22142     22145     22148     22144     22142     22145     22146
     22144     22142     22145     22147     22144     22142     22145     22148
     22145     22148     22151     22152     22145     22148     22151     22153
     22145     22148     22151     22154     22146     22145     22148     22149
     22146     22145     22148     22150     22146     22145     22148     22151
     22147     22145     22148     22149     22147     22145     22148     22150
     22147     22145     22148     22151     22148     22151     22154     22155
     22148     22151     22154     22156     22148     22151     22154     22157
     22149     22148     22151     22152     22149     22148     22151     22153
     22149     22148     22151     22154     22150     22148     22151     22152
     22150     22148     22151     22153     22150     22148     22151     22154
     22151     22154     22157     22158     22151     22154     22157     22159
     22151     22154     22157     22160     22152     22151     22154     22155
     22152     22151     22154     22156     22152     22151     22154     22157
     22153     22151     22154     22155     22153     22151     22154     22156
     22153     22151     22154     22157     22154     22157     22160     22161
     22154     22157     22160     22162     22154     22157     22160     22163
     22155     22154     22157     22158     22155     22154     22157     22159
     22155     22154     22157     22160     22156     22154     22157     22158
     22156     22154     22157     22159     22156     22154     22157     22160
     22157     22160     22163     22164     22157     22160     22163     22165
     22157     22160     22163     22166     22158     22157     22160     22161
     22158     22157     22160     22162     22158     22157     22160     22163
     22159     22157     22160     22161     22159     22157     22160     22162
     22159     22157     22160     22163     22160     22163     22166     22167
     22160     22163     22166     22168     22160     22163     22166     22169
     22161     22160     22163     22164     22161     22160     22163     22165
     22161     22160     22163     22166     22162     22160     22163     22164
     22162     22160     22163     22165     22162     22160     22163     22166
     22163     22166     22169     22170     22163     22166     22169     22171
     22163     22166     22169     22172     22164     22163     22166     22167
     22164     22163     22166     22168     22164     22163     22166     22169
     22165     22163     22166     22167     22165     22163     22166     22168
     22165     22163     22166     22169     22166     22169     22172     22173
     22166     22169     22172     22174     22166     22169     22172     22175
     22167     22166     22169     22170     22167     22166     22169     22171
     22167     22166     22169     22172     22168     22166     22169     22170
     22168     22166     22169     22171     22168     22166     22169     22172
     22169     22172     22175     22176     22169     22172     22175     22177
     22169     22172     22175     22178     22170     22169     22172     22173
     22170     22169     22172     22174     22170     22169     22172     22175
     22171     22169     22172     22173     22171     22169     22172     22174
     22171     22169     22172     22175     22173     22172     22175     22176
     22173     22172     22175     22177     22173     22172     22175     22178
     22174     22172     22175     22176     22174     22172     22175     22177
     22174     22172     22175     22178     22179     22183     22186     22187
     22179     22183     22186     22217     22179     22225     22222     22217
     22179     22225     22222     22223     22179     22225     22222     22224
     22180     22179     22181     22182     22180     22179     22183     22184
     22180     22179     22183     22185     22180     22179     22183     22186
     22180     22179     22225     22222     22180     22179     22225     22226
     22180     22179     22225     22227     22181     22179     22183     22184
     22181     22179     22183     22185     22181     22179     22183     22186
     22181     22179     22225     22222     22181     22179     22225     22226
     22181     22179     22225     22227     22182     22181     22179     22183
     22182     22181     22179     22225     22183     22179     22225     22222
     22183     22179     22225     22226     22183     22179     22225     22227
     22183     22186     22187     22188     22183     22186     22187     22189
     22183     22186     22217     22215     22183     22186     22217     22218
     22183     22186     22217     22222     22184     22183     22179     22225
     22184     22183     22186     22187     22184     22183     22186     22217
     22185     22183     22179     22225     22185     22183     22186     22187
     22185     22183     22186     22217     22186     22183     22179     22225
     22186     22187     22189     22190     22186     22187     22189     22191
     22186     22187     22189     22192     22186     22217     22215     22192
     22186     22217     22215     22212     22186     22217     22215     22216
     22186     22217     22218     22219     22186     22217     22218     22220
     22186     22217     22218     22221     22186     22217     22222     22223
     22186     22217     22222     22224     22186     22217     22222     22225
     22187     22186     22217     22215     22187     22186     22217     22218
     22187     22186     22217     22222     22187     22189     22192     22193
     22187     22189     22192     22194     22187     22189     22192     22215
     22188     22187     22186     22217     22188     22187     22189     22190
     22188     22187     22189     22191     22188     22187     22189     22192
     22189     22187     22186     22217     22189     22192     22194     22195
     22189     22192     22194     22196     22189     22192     22194     22204
     22189     22192     22215     22212     22189     22192     22215     22216
     22189     22192     22215     22217     22190     22189     22192     22193
     22190     22189     22192     22194     22190     22189     22192     22215
     22191     22189     22192     22193     22191     22189     22192     22194
     22191     22189     22192     22215     22192     22194     22196     22197
     22192     22194     22196     22198     22192     22194     22196     22199
     22192     22194     22204     22202     22192     22194     22204     22205
     22192     22194     22204     22209     22192     22215     22212     22209
     22192     22215     22212     22213     22192     22215     22212     22214
     22192     22215     22217     22218     22192     22215     22217     22222
     22193     22192     22194     22195     22193     22192     22194     22196
     22193     22192     22194     22204     22193     22192     22215     22212
     22193     22192     22215     22216     22193     22192     22215     22217
     22194     22192     22215     22212     22194     22192     22215     22216
     22194     22192     22215     22217     22194     22196     22199     22200
     22194     22196     22199     22201     22194     22196     22199     22202
     22194     22204     22202     22199     22194     22204     22202     22203
     22194     22204     22202     22228     22194     22204     22205     22206
     22194     22204     22205     22207     22194     22204     22205     22208
     22194     22204     22209     22210     22194     22204     22209     22211
     22194     22204     22209     22212     22195     22194     22192     22215
     22195     22194     22196     22197     22195     22194     22196     22198
     22195     22194     22196     22199     22195     22194     22204     22202
     22195     22194     22204     22205     22195     22194     22204     22209
     22196     22194     22192     22215     22196     22194     22204     22202
     22196     22194     22204     22205     22196     22194     22204     22209
     22196     22199     22202     22203     22196     22199     22202     22204
     22196     22199     22202     22228     22197     22196     22194     22204
     22197     22196     22199     22200     22197     22196     22199     22201
     22197     22196     22199     22202     22198     22196     22194     22204
     22198     22196     22199     22200     22198     22196     22199     22201
     22198     22196     22199     22202     22199     22196     22194     22204
     22199     22202     22204     22205     22199     22202     22204     22209
     22199     22202     22228     22229     22199     22202     22228     22230
     22199     22202     22228     22234     22200     22199     22202     22203
     22200     22199     22202     22204     22200     22199     22202     22228
     22201     22199     22202     22203     22201     22199     22202     22204
     22201     22199     22202     22228     22202     22204     22205     22206
     22202     22204     22205     22207     22202     22204     22205     22208
     22202     22204     22209     22210     22202     22204     22209     22211
     22202     22204     22209     22212     22202     22228     22230     22231
     22202     22228     22230     22232     22202     22228     22230     22233
     22202     22228     22234     22235     22202     22228     22234     22236
     22202     22228     22234     22237     22203     22202     22204     22205
     22203     22202     22204     22209     22203     22202     22228     22229
     22203     22202     22228     22230     22203     22202     22228     22234
     22204     22194     22192     22215     22204     22202     22228     22229
     22204     22202     22228     22230     22204     22202     22228     22234
     22204     22209     22212     22213     22204     22209     22212     22214
     22204     22209     22212     22215     22205     22204     22202     22228
     22205     22204     22209     22210     22205     22204     22209     22211
     22205     22204     22209     22212     22206     22205     22204     22209
     22207     22205     22204     22209     22208     22205     22204     22209
     22209     22204     22202     22228     22209     22212     22215     22216
     22209     22212     22215     22217     22210     22209     22212     22213
     22210     22209     22212     22214     22210     22209     22212     22215
     22211     22209     22212     22213     22211     22209     22212     22214
     22211     22209     22212     22215     22212     22215     22217     22218
     22212     22215     22217     22222     22213     22212     22215     22216
     22213     22212     22215     22217     22214     22212     22215     22216
     22214     22212     22215     22217     22215     22217     22218     22219
     22215     22217     22218     22220     22215     22217     22218     22221
     22215     22217     22222     22223     22215     22217     22222     22224
     22215     22217     22222     22225     22216     22215     22217     22218
     22216     22215     22217     22222     22217     22222     22225     22226
     22217     22222     22225     22227     22218     22217     22222     22223
     22218     22217     22222     22224     22218     22217     22222     22225
     22219     22218     22217     22222     22220     22218     22217     22222
     22221     22218     22217     22222     22223     22222     22225     22226
     22223     22222     22225     22227     22224     22222     22225     22226
     22224     22222     22225     22227     22228     22234     22237     22238
     22228     22234     22237     22239     22228     22234     22237     22240
     22229     22228     22230     22231     22229     22228     22230     22232
     22229     22228     22230     22233     22229     22228     22234     22235
     22229     22228     22234     22236     22229     22228     22234     22237
     22230     22228     22234     22235     22230     22228     22234     22236
     22230     22228     22234     22237     22231     22230     22228     22234
     22232     22230     22228     22234     22233     22230     22228     22234
     22234     22237     22240     22241     22234     22237     22240     22242
     22234     22237     22240     22243     22235     22234     22237     22238
     22235     22234     22237     22239     22235     22234     22237     22240
     22236     22234     22237     22238     22236     22234     22237     22239
     22236     22234     22237     22240     22237     22240     22243     22244
     22237     22240     22243     22245     22237     22240     22243     22249
     22238     22237     22240     22241     22238     22237     22240     22242
     22238     22237     22240     22243     22239     22237     22240     22241
     22239     22237     22240     22242     22239     22237     22240     22243
     22240     22243     22245     22246     22240     22243     22245     22247
     22240     22243     22245     22248     22240     22243     22249     22250
     22240     22243     22249     22251     22240     22243     22249     22252
     22241     22240     22243     22244     22241     22240     22243     22245
     22241     22240     22243     22249     22242     22240     22243     22244
     22242     22240     22243     22245     22242     22240     22243     22249
     22244     22243     22245     22246     22244     22243     22245     22247
     22244     22243     22245     22248     22244     22243     22249     22250
     22244     22243     22249     22251     22244     22243     22249     22252
     22245     22243     22249     22250     22245     22243     22249     22251
     22245     22243     22249     22252     22246     22245     22243     22249
     22247     22245     22243     22249     22248     22245     22243     22249

       272 !NIMPHI: impropers
        24        23        26        25        33        32        35        34
       229       228       231       230       238       237       240       239
       443       442       445       444       452       451       454       453
       632       634       580       633       580       632       582       581
       911       913       859       912       859       911       861       860
       984       983       986       985       993       992       995       994
      1173      1175      1121      1174      1121      1173      1123      1122
      1526      1528      1474      1527      1474      1526      1476      1475
      1731      1733      1679      1732      1679      1731      1681      1680
      1804      1803      1806      1805      1813      1812      1815      1814
      2009      2008      2011      2010      2018      2017      2020      2019
      2214      2213      2216      2215      2223      2222      2225      2224
      2345      2344      2347      2346      2354      2353      2356      2355
      2478      2477      2480      2479      2487      2486      2489      2488
      2611      2610      2613      2612      2620      2619      2622      2621
      2744      2743      2746      2745      2753      2752      2755      2754
      2875      2874      2877      2876      2884      2883      2886      2885
      3006      3005      3008      3007      3015      3014      3017      3016
      3137      3136      3139      3138      3146      3145      3148      3147
      3342      3341      3344      3343      3351      3350      3353      3352
      3482      3481      3484      3483      3491      3490      3493      3492
      3685      3684      3687      3686      3694      3693      3696      3695
      3966      3965      3968      3967      3975      3974      3977      3976
      4097      4096      4099      4098      4106      4105      4108      4107
      4237      4236      4239      4238      4246      4245      4248      4247
      4494      4496      4442      4495      4442      4494      4444      4443
      4625      4627      4573      4626      4573      4625      4575      4574
      4700      4699      4702      4701      4709      4708      4711      4710
      4889      4891      4837      4890      4837      4889      4839      4838
      4971      4970      4973      4972      4980      4979      4982      4981
      5158      5160      5106      5159      5106      5158      5108      5107
      5289      5291      5237      5290      5237      5289      5239      5238
      5436      5435      5438      5437      5445      5444      5447      5446
      5641      5640      5643      5642      5650      5649      5652      5651
      5904      5906      5852      5905      5852      5904      5854      5853
      6035      6037      5983      6036      5983      6035      5985      5984
      6166      6168      6114      6167      6114      6166      6116      6115
      6297      6299      6245      6298      6245      6297      6247      6246
      6379      6378      6381      6380      6388      6387      6390      6389
      6517      6516      6519      6518      6526      6525      6528      6527
      6954      6953      6956      6955      6963      6962      6965      6964
      7217      7219      7165      7218      7165      7217      7167      7166
      7292      7291      7294      7293      7301      7300      7303      7302
      7423      7422      7425      7424      7432      7431      7434      7433
      7563      7562      7565      7564      7572      7571      7574      7573
      7746      7748      7694      7747      7694      7746      7696      7695
      7877      7879      7825      7878      7825      7877      7827      7826
      8008      8010      7956      8009      7956      8008      7958      7957
      8090      8089      8092      8091      8099      8098      8101      8100
      8279      8281      8227      8280      8227      8279      8229      8228
      8410      8412      8358      8411      8358      8410      8360      8359
      8485      8484      8487      8486      8494      8493      8496      8495
      8699      8698      8701      8700      8708      8707      8710      8709
      8840      8839      8842      8841      8849      8848      8851      8850
      9029      9031      8977      9030      8977      9029      8979      8978
      9102      9101      9104      9103      9111      9110      9113      9112
      9307      9306      9309      9308      9316      9315      9318      9317
      9447      9446      9449      9448      9456      9455      9458      9457
      9585      9584      9587      9586      9594      9593      9596      9595
      9716      9715      9718      9717      9725      9724      9727      9726
      9923      9922      9925      9924      9932      9931      9934      9933
     10186     10188     10134     10187     10134     10186     10136     10135
     10259     10258     10261     10260     10268     10267     10270     10269
     10390     10389     10392     10391     10399     10398     10401     10400
     10530     10529     10532     10531     10539     10538     10541     10540
     10744     10743     10746     10745     10753     10752     10755     10754
     10884     10883     10886     10885     10893     10892     10895     10894
     11017     11016     11019     11018     11026     11025     11028     11027
     11280     11282     11228     11281     11228     11280     11230     11229
     11355     11354     11357     11356     11364     11363     11366     11365
     11486     11485     11488     11487     11495     11494     11497     11496
     11777     11776     11779     11778     11786     11785     11788     11787
     11910     11909     11912     11911     11919     11918     11921     11920
     12099     12101     12047     12100     12047     12099     12049     12048
     12172     12171     12174     12173     12181     12180     12183     12182
     12361     12363     12309     12362     12309     12361     12311     12310
     12443     12442     12445     12444     12452     12451     12454     12453
     12581     12580     12583     12582     12590     12589     12592     12591
     12860     12859     12862     12861     12869     12868     12871     12870
     13000     12999     13002     13001     13009     13008     13011     13010
     13140     13139     13142     13141     13149     13148     13151     13150
     13271     13270     13273     13272     13280     13279     13282     13281
     13402     13401     13404     13403     13411     13410     13413     13412
     13591     13593     13539     13592     13539     13591     13541     13540
     13722     13724     13670     13723     13670     13722     13672     13671
     13797     13796     13799     13798     13806     13805     13808     13807
     14060     14062     14008     14061     14008     14060     14010     14009
     14191     14193     14139     14192     14139     14191     14141     14140
     14264     14263     14266     14265     14273     14272     14275     14274
     14404     14403     14406     14405     14413     14412     14415     14414
     14593     14595     14541     14594     14541     14593     14543     14542
     14742     14741     14744     14743     14751     14750     14753     14752
     14949     14948     14951     14950     14958     14957     14960     14959
     15138     15140     15086     15139     15086     15138     15088     15087
     15211     15210     15213     15212     15220     15219     15222     15221
     15474     15476     15422     15475     15422     15474     15424     15423
     15605     15607     15553     15606     15553     15605     15555     15554
     15687     15686     15689     15688     15696     15695     15698     15697
     15874     15876     15822     15875     15822     15874     15824     15823
     16005     16007     15953     16006     15953     16005     15955     15954
     16080     16079     16082     16081     16089     16088     16091     16090
     16343     16345     16291     16344     16291     16343     16293     16292
     16416     16415     16418     16417     16425     16424     16427     16426
     16556     16555     16558     16557     16565     16564     16567     16566
     16743     16745     16691     16744     16691     16743     16693     16692
     17112     17111     17114     17113     17121     17120     17123     17122
     17317     17316     17319     17318     17326     17325     17328     17327
     17457     17456     17459     17458     17466     17465     17468     17467
     17582     17581     17584     17583     17591     17590     17593     17592
     17722     17721     17724     17723     17731     17730     17733     17732
     17855     17854     17857     17856     17864     17863     17866     17865
     17998     17997     18000     17999     18007     18006     18009     18008
     18129     18128     18131     18130     18138     18137     18140     18139
     18260     18259     18262     18261     18269     18268     18271     18270
     18449     18451     18397     18450     18397     18449     18399     18398
     18580     18582     18528     18581     18528     18580     18530     18529
     18727     18726     18729     18728     18736     18735     18738     18737
     18941     18940     18943     18942     18950     18949     18952     18951
     19149     19148     19151     19150     19158     19157     19160     19159
     19282     19281     19284     19283     19291     19290     19293     19292
     19471     19473     19419     19472     19419     19471     19421     19420
     19546     19545     19548     19547     19555     19554     19557     19556
     19677     19676     19679     19678     19686     19685     19688     19687
     19965     19964     19967     19966     19974     19973     19976     19975
     20168     20167     20170     20169     20177     20176     20179     20178
     20447     20446     20449     20448     20456     20455     20458     20457
     20587     20586     20589     20588     20596     20595     20598     20597
     20790     20789     20792     20791     20799     20798     20801     20800
     20921     20920     20923     20922     20930     20929     20932     20931
     21052     21051     21054     21053     21061     21060     21063     21062
     21315     21317     21263     21316     21263     21315     21265     21264
     21388     21387     21390     21389     21397     21396     21399     21398
     21577     21579     21525     21578     21525     21577     21527     21526
     21782     21784     21730     21783     21730     21782     21732     21731
     21913     21915     21861     21914     21861     21913     21863     21862
     22069     22068     22071     22070     22078     22077     22080     22079

       212 !NDON: donors
     22253     22254     22253     22255     22256     22257     22256     22258
     22259     22260     22259     22261     22262     22263     22262     22264
     22265     22266     22265     22267     22268     22269     22268     22270
     22271     22272     22271     22273     22274     22275     22274     22276
     22277     22278     22277     22279     22280     22281     22280     22282
     22283     22284     22283     22285     22286     22287     22286     22288
     22289     22290     22289     22291     22292     22293     22292     22294
     22295     22296     22295     22297     22298     22299     22298     22300
     22301     22302     22301     22303     22304     22305     22304     22306
     22307     22308     22307     22309     22310     22311     22310     22312
     22313     22314     22313     22315     22316     22317     22316     22318
     22319     22320     22319     22321     22322     22323     22322     22324
     22325     22326     22325     22327     22328     22329     22328     22330
     22331     22332     22331     22333     22334     22335     22334     22336
     22337     22338     22337     22339     22340     22341     22340     22342
     22343     22344     22343     22345     22346     22347     22346     22348
     22349     22350     22349     22351     22352     22353     22352     22354
     22355     22356     22355     22357     22358     22359     22358     22360
     22361     22362     22361     22363     22364     22365     22364     22366
     22367     22368     22367     22369     22370     22371     22370     22372
     22373     22374     22373     22375     22376     22377     22376     22378
     22379     22380     22379     22381     22382     22383     22382     22384
     22385     22386     22385     22387     22388     22389     22388     22390
     22391     22392     22391     22393     22394     22395     22394     22396
     22397     22398     22397     22399     22400     22401     22400     22402
     22403     22404     22403     22405     22406     22407     22406     22408
     22409     22410     22409     22411     22412     22413     22412     22414
     22415     22416     22415     22417     22418     22419     22418     22420
     22421     22422     22421     22423     22424     22425     22424     22426
     22427     22428     22427     22429     22430     22431     22430     22432
     22433     22434     22433     22435     22436     22437     22436     22438
     22439     22440     22439     22441     22442     22443     22442     22444
     22445     22446     22445     22447     22448     22449     22448     22450
     22451     22452     22451     22453     22454     22455     22454     22456
     22457     22458     22457     22459     22460     22461     22460     22462
     22463     22464     22463     22465     22466     22467     22466     22468
     22469     22470     22469     22471     22472     22473     22472     22474
     22475     22476     22475     22477     22478     22479     22478     22480
     22481     22482     22481     22483     22484     22485     22484     22486
     22487     22488     22487     22489     22490     22491     22490     22492
     22493     22494     22493     22495     22496     22497     22496     22498
     22499     22500     22499     22501     22502     22503     22502     22504
     22505     22506     22505     22507     22508     22509     22508     22510
     22511     22512     22511     22513     22514     22515     22514     22516
     22517     22518     22517     22519     22520     22521     22520     22522
     22523     22524     22523     22525     22526     22527     22526     22528
     22529     22530     22529     22531     22532     22533     22532     22534
     22535     22536     22535     22537     22538     22539     22538     22540
     22541     22542     22541     22543     22544     22545     22544     22546
     22547     22548     22547     22549     22550     22551     22550     22552
     22553     22554     22553     22555     22556     22557     22556     22558
     22559     22560     22559     22561     22562     22563     22562     22564
     22565     22566     22565     22567     22568     22569     22568     22570

       106 !NACC: acceptors
     22253         0     22256         0     22259         0     22262         0
     22265         0     22268         0     22271         0     22274         0
     22277         0     22280         0     22283         0     22286         0
     22289         0     22292         0     22295         0     22298         0
     22301         0     22304         0     22307         0     22310         0
     22313         0     22316         0     22319         0     22322         0
     22325         0     22328         0     22331         0     22334         0
     22337         0     22340         0     22343         0     22346         0
     22349         0     22352         0     22355         0     22358         0
     22361         0     22364         0     22367         0     22370         0
     22373         0     22376         0     22379         0     22382         0
     22385         0     22388         0     22391         0     22394         0
     22397         0     22400         0     22403         0     22406         0
     22409         0     22412         0     22415         0     22418         0
     22421         0     22424         0     22427         0     22430         0
     22433         0     22436         0     22439         0     22442         0
     22445         0     22448         0     22451         0     22454         0
     22457         0     22460         0     22463         0     22466         0
     22469         0     22472         0     22475         0     22478         0
     22481         0     22484         0     22487         0     22490         0
     22493         0     22496         0     22499         0     22502         0
     22505         0     22508         0     22511         0     22514         0
     22517         0     22520         0     22523         0     22526         0
     22529         0     22532         0     22535         0     22538         0
     22541         0     22544         0     22547         0     22550         0
     22553         0     22556         0     22559         0     22562         0
     22565         0     22568         0

         0 !NNB

         0         0         0         0         0         0         0         0
         0         0         0         0         0         0         0         0
         0         0         0         0         0         0         0         0
         0         0         0         0         0         0         0         0
         0         0         0         0         0         0         0         0
         0         0         0         0         0         0         0         0
         0         0         0         0         0         0         0         0
         0         0         0         0         0         0         0         0
         0         0         0         0         0         0         0         0
         0         0         0         0         0         0         0         0
         0         0         0         0         0         0         0         0
         0         0         0         0         0         0         0         0
         0         0         0         0         0         0         0         0
         0         0         0         0         0         0         0         0
         0         0         0         0         0         0         0         0
         0         0         0         0         0         0         0         0
         0         0         0         0         0         0         0         0
         0         0         0         0         0         0         0         0
         0         0         0         0         0         0         0         0
         0         0         0         0         0         0         0         0
         0         0         0         0         0         0         0         0
         0         0         0         0         0         0         0         0
         0         0         0         0         0         0         0         0
         0         0         0         0         0         0         0         0
         0         0         0         0         0         0         0         0
         0         0         0         0         0         0         0         0
         0         0         0         0         0         0         0         0
         0         0         0         0         0         0         0         0
         0         0         0         0         0         0         0         0
         0         0         0         0         0         0         0         0
         0         0         0         0         0         0         0         0
         0         0         0         0         0         0         0         0
         0         0         0         0         0         0         0         0
         0         0         0         0         0         0         0         0
         0         0         0         0         0         0         0         0
         0         0         0         0         0         0         0         0
         0         0         0         0         0         0         0         0
         0         0         0         0         0         0         0         0
         0         0         0         0         0         0         0         0
         0         0         0         0         0         0         0         0
         0         0         0         0         0         0         0         0
         0         0         0         0         0         0         0         0
         0         0         0         0         0         0         0         0
         0         0         0         0         0         0         0         0
         0         0         0         0         0         0         0         0
         0         0         0         0         0         0         0         0
         0         0         0         0         0         0         0         0
         0         0         0         0         0         0         0         0
         0         0         0         0         0         0         0         0
         0         0         0         0         0         0         0         0
         0         0         0         0         0         0         0         0
         0         0         0         0         0         0         0         0
         0         0         0         0         0         0         0         0
         0         0         0         0         0         0         0         0
         0         0         0         0         0         0         0         0
         0         0         0         0         0         0         0         0
         0         0         0         0         0         0         0         0
         0         0         0         0         0         0         0         0
         0         0         0         0         0         0         0         0
         0         0         0         0         0         0         0         0
         0         0         0         0         0         0         0         0
         0         0         0         0         0         0         0         0
         0         0         0         0         0         0         0         0
         0         0         0         0         0         0         0         0
         0         0         0         0         0         0         0         0
         0         0         0         0         0         0         0         0
         0         0         0         0         0         0         0         0
         0         0         0         0         0         0         0         0
         0         0         0         0         0         0         0         0
         0         0         0         0         0         0         0         0
         0         0         0         0         0         0         0         0
         0         0         0         0         0         0         0         0
         0         0         0         0         0         0         0         0
         0         0         0         0         0         0         0         0
         0         0         0         0         0         0         0         0
         0         0         0         0         0         0         0         0
         0         0         0         0         0         0         0         0
         0         0         0         0         0         0         0         0
         0         0         0         0         0         0         0         0
         0         0         0         0         0         0         0         0
         0         0         0         0         0         0         0         0
         0         0         0         0         0         0         0         0
         0         0         0         0         0         0         0         0
         0         0         0         0         0         0         0         0
         0         0         0         0         0         0         0         0
         0         0         0         0         0         0         0         0
         0         0         0         0         0         0         0         0
         0         0         0         0         0         0         0         0
         0         0         0         0         0         0         0         0
         0         0         0         0         0         0         0         0
         0         0         0         0         0         0         0         0
         0         0         0         0         0         0         0         0
         0         0         0         0         0         0         0         0
         0         0         0         0         0         0         0         0
         0         0         0         0         0         0         0         0
         0         0         0         0         0         0         0         0
         0         0         0         0         0         0         0         0
         0         0         0         0         0         0         0         0
         0         0         0         0         0         0         0         0
         0         0         0         0         0         0         0         0
         0         0         0         0         0         0         0         0
         0         0         0         0         0         0         0         0
         0         0         0         0         0         0         0         0
         0         0         0         0         0         0         0         0
         0         0         0         0         0         0         0         0
         0         0         0         0         0         0         0         0
         0         0         0         0         0         0         0         0
         0         0         0         0         0         0         0         0
         0         0         0         0         0         0         0         0
         0         0         0         0         0         0         0         0
         0         0         0         0         0         0         0         0
         0         0         0         0         0         0         0         0
         0         0         0         0         0         0         0         0
         0         0         0         0         0         0         0         0
         0         0         0         0         0         0         0         0
         0         0         0         0         0         0         0         0
         0         0         0         0         0         0         0         0
         0         0         0         0         0         0         0         0
         0         0         0         0         0         0         0         0
         0         0         0         0         0         0         0         0
         0         0         0         0         0         0         0         0
         0         0         0         0         0         0         0         0
         0         0         0         0         0         0         0         0
         0         0         0         0         0         0         0         0
         0         0         0         0         0         0         0         0
         0         0         0         0         0         0         0         0
         0         0         0         0         0         0         0         0
         0         0         0         0         0         0         0         0
         0         0         0         0         0         0         0         0
         0         0         0         0         0         0         0         0
         0         0         0         0         0         0         0         0
         0         0         0         0         0         0         0         0
         0         0         0         0         0         0         0         0
         0         0         0         0         0         0         0         0
         0         0         0         0         0         0         0         0
         0         0         0         0         0         0         0         0
         0         0         0         0         0         0         0         0
         0         0         0         0         0         0         0         0
         0         0         0         0         0         0         0         0
         0         0         0         0         0         0         0         0
         0         0         0         0         0         0         0         0
         0         0         0         0         0         0         0         0
         0         0         0         0         0         0         0         0
         0         0         0         0         0         0         0         0
         0         0         0         0         0         0         0         0
         0         0         0         0         0         0         0         0
         0         0         0         0         0         0         0         0
         0         0         0         0         0         0         0         0
         0         0         0         0         0         0         0         0
         0         0         0         0         0         0         0         0
         0         0         0         0         0         0         0         0
         0         0         0         0         0         0         0         0
         0         0         0         0         0         0         0         0
         0         0         0         0         0         0         0         0
         0         0         0         0         0         0         0         0
         0         0         0         0         0         0         0         0
         0         0         0         0         0         0         0         0
         0         0         0         0         0         0         0         0
         0         0         0         0         0         0         0         0
         0         0         0         0         0         0         0         0
         0         0         0         0         0         0         0         0
         0         0         0         0         0         0         0         0
         0         0         0         0         0         0         0         0
         0         0         0         0         0         0         0         0
         0         0         0         0         0         0         0         0
         0         0         0         0         0         0         0         0
         0         0         0         0         0         0         0         0
         0         0         0         0         0         0         0         0
         0         0         0         0         0         0         0         0
         0         0         0         0         0         0         0         0
         0         0         0         0         0         0         0         0
         0         0         0         0         0         0         0         0
         0         0         0         0         0         0         0         0
         0         0         0         0         0         0         0         0
         0         0         0         0         0         0         0         0
         0         0         0         0         0         0         0         0
         0         0         0         0         0         0         0         0
         0         0         0         0         0         0         0         0
         0         0         0         0         0         0         0         0
         0         0         0         0         0         0         0         0
         0         0         0         0         0         0         0         0
         0         0         0         0         0         0         0         0
         0         0         0         0         0         0         0         0
         0         0         0         0         0         0         0         0
         0         0         0         0         0         0         0         0
         0         0         0         0         0         0         0         0
         0         0         0         0         0         0         0         0
         0         0         0         0         0         0         0         0
         0         0         0         0         0         0         0         0
         0         0         0         0         0         0         0         0
         0         0         0         0         0         0         0         0
         0         0         0         0         0         0         0         0
         0         0         0         0         0         0         0         0
         0         0         0         0         0         0         0         0
         0         0         0         0         0         0         0         0
         0         0         0         0         0         0         0         0
         0         0         0         0         0         0         0         0
         0         0         0         0         0         0         0         0
         0         0         0         0         0         0         0         0
         0         0         0         0         0         0         0         0
         0         0         0         0         0         0         0         0
         0         0         0         0         0         0         0         0
         0         0         0         0         0         0         0         0
         0         0         0         0         0         0         0         0
         0         0         0         0         0         0         0         0
         0         0         0         0         0         0         0         0
         0         0         0         0         0         0         0         0
         0         0         0         0         0         0         0         0
         0         0         0         0         0         0         0         0
         0         0         0         0         0         0         0         0
         0         0         0         0         0         0         0         0
         0         0         0         0         0         0         0         0
         0         0         0         0         0         0         0         0
         0         0         0         0         0         0         0         0
         0         0         0         0         0         0         0         0
         0         0         0         0         0         0         0         0
         0         0         0         0         0         0         0         0
         0         0         0         0         0         0         0         0
         0         0         0         0         0         0         0         0
         0         0         0         0         0         0         0         0
         0         0         0         0         0         0         0         0
         0         0         0         0         0         0         0         0
         0         0         0         0         0         0         0         0
         0         0         0         0         0         0         0         0
         0         0         0         0         0         0         0         0
         0         0         0         0         0         0         0         0
         0         0         0         0         0         0         0         0
         0         0         0         0         0         0         0         0
         0         0         0         0         0         0         0         0
         0         0         0         0         0         0         0         0
         0         0         0         0         0         0         0         0
         0         0         0         0         0         0         0         0
         0         0         0         0         0         0         0         0
         0         0         0         0         0         0         0         0
         0         0         0         0         0         0         0         0
         0         0         0         0         0         0         0         0
         0         0         0         0         0         0         0         0
         0         0         0         0         0         0         0         0
         0         0         0         0         0         0         0         0
         0         0         0         0         0         0         0         0
         0         0         0         0         0         0         0         0
         0         0         0         0         0         0         0         0
         0         0         0         0         0         0         0         0
         0         0         0         0         0         0         0         0
         0         0         0         0         0         0         0         0
         0         0         0         0         0         0         0         0
         0         0         0         0         0         0         0         0
         0         0         0         0         0         0         0         0
         0         0         0         0         0         0         0         0
         0         0         0         0         0         0         0         0
         0         0         0         0         0         0         0         0
         0         0         0         0         0         0         0         0
         0         0         0         0         0         0         0         0
         0         0         0         0         0         0         0         0
         0         0         0         0         0         0         0         0
         0         0         0         0         0         0         0         0
         0         0         0         0         0         0         0         0
         0         0         0         0         0         0         0         0
         0         0         0         0         0         0         0         0
         0         0         0         0         0         0         0         0
         0         0         0         0         0         0         0         0
         0         0         0         0         0         0         0         0
         0         0         0         0         0         0         0         0
         0         0         0         0         0         0         0         0
         0         0         0         0         0         0         0         0
         0         0         0         0         0         0         0         0
         0         0         0         0         0         0         0         0
         0         0         0         0         0         0         0         0
         0         0         0         0         0         0         0         0
         0         0         0         0         0         0         0         0
         0         0         0         0         0         0         0         0
         0         0         0         0         0         0         0         0
         0         0         0         0         0         0         0         0
         0         0         0         0         0         0         0         0
         0         0         0         0         0         0         0         0
         0         0         0         0         0         0         0         0
         0         0         0         0         0         0         0         0
         0         0         0         0         0         0         0         0
         0         0         0         0         0         0         0         0
         0         0         0         0         0         0         0         0
         0         0         0         0         0         0         0         0
         0         0         0         0         0         0         0         0
         0         0         0         0         0         0         0         0
         0         0         0         0         0         0         0         0
         0         0         0         0         0         0         0         0
         0         0         0         0         0         0         0         0
         0         0         0         0         0         0         0         0
         0         0         0         0         0         0         0         0
         0         0         0         0         0         0         0         0
         0         0         0         0         0         0         0         0
         0         0         0         0         0         0         0         0
         0         0         0         0         0         0         0         0
         0         0         0         0         0         0         0         0
         0         0         0         0         0         0         0         0
         0         0         0         0         0         0         0         0
         0         0         0         0         0         0         0         0
         0         0         0         0         0         0         0         0
         0         0         0         0         0         0         0         0
         0         0         0         0         0         0         0         0
         0         0         0         0         0         0         0         0
         0         0         0         0         0         0         0         0
         0         0         0         0         0         0         0         0
         0         0         0         0         0         0         0         0
         0         0         0         0         0         0         0         0
         0         0         0         0         0         0         0         0
         0         0         0         0         0         0         0         0
         0         0         0         0         0         0         0         0
         0         0         0         0         0         0         0         0
         0         0         0         0         0         0         0         0
         0         0         0         0         0         0         0         0
         0         0         0         0         0         0         0         0
         0         0         0         0         0         0         0         0
         0         0         0         0         0         0         0         0
         0         0         0         0         0         0         0         0
         0         0         0         0         0         0         0         0
         0         0         0         0         0         0         0         0
         0         0         0         0         0         0         0         0
         0         0         0         0         0         0         0         0
         0         0         0         0         0         0         0         0
         0         0         0         0         0         0         0         0
         0         0         0         0         0         0         0         0
         0         0         0         0         0         0         0         0
         0         0         0         0         0         0         0         0
         0         0         0         0         0         0         0         0
         0         0         0         0         0         0         0         0
         0         0         0         0         0         0         0         0
         0         0         0         0         0         0         0         0
         0         0         0         0         0         0         0         0
         0         0         0         0         0         0         0         0
         0         0         0         0         0         0         0         0
         0         0         0         0         0         0         0         0
         0         0         0         0         0         0         0         0
         0         0         0         0         0         0         0         0
         0         0         0         0         0         0         0         0
         0         0         0         0         0         0         0         0
         0         0         0         0         0         0         0         0
         0         0         0         0         0         0         0         0
         0         0         0         0         0         0         0         0
         0         0         0         0         0         0         0         0
         0         0         0         0         0         0         0         0
         0         0         0         0         0         0         0         0
         0         0         0         0         0         0         0         0
         0         0         0         0         0         0         0         0
         0         0         0         0         0         0         0         0
         0         0         0         0         0         0         0         0
         0         0         0         0         0         0         0         0
         0         0         0         0         0         0         0         0
         0         0         0         0         0         0         0         0
         0         0         0         0         0         0         0         0
         0         0         0         0         0         0         0         0
         0         0         0         0         0         0         0         0
         0         0         0         0         0         0         0         0
         0         0         0         0         0         0         0         0
         0         0         0         0         0         0         0         0
         0         0         0         0         0         0         0         0
         0         0         0         0         0         0         0         0
         0         0         0         0         0         0         0         0
         0         0         0         0         0         0         0         0
         0         0         0         0         0         0         0         0
         0         0         0         0         0         0         0         0
         0         0         0         0         0         0         0         0
         0         0         0         0         0         0         0         0
         0         0         0         0         0         0         0         0
         0         0         0         0         0         0         0         0
         0         0         0         0         0         0         0         0
         0         0         0         0         0         0         0         0
         0         0         0         0         0         0         0         0
         0         0         0         0         0         0         0         0
         0         0         0         0         0         0         0         0
         0         0         0         0         0         0         0         0
         0         0         0         0         0         0         0         0
         0         0         0         0         0         0         0         0
         0         0         0         0         0         0         0         0
         0         0         0         0         0         0         0         0
         0         0         0         0         0         0         0         0
         0         0         0         0         0         0         0         0
         0         0         0         0         0         0         0         0
         0         0         0         0         0         0         0         0
         0         0         0         0         0         0         0         0
         0         0         0         0         0         0         0         0
         0         0         0         0         0         0         0         0
         0         0         0         0         0         0         0         0
         0         0         0         0         0         0         0         0
         0         0         0         0         0         0         0         0
         0         0         0         0         0         0         0         0
         0         0         0         0         0         0         0         0
         0         0         0         0         0         0         0         0
         0         0         0         0         0         0         0         0
         0         0         0         0         0         0         0         0
         0         0         0         0         0         0         0         0
         0         0         0         0         0         0         0         0
         0         0         0         0         0         0         0         0
         0         0         0         0         0         0         0         0
         0         0         0         0         0         0         0         0
         0         0         0         0         0         0         0         0
         0         0         0         0         0         0         0         0
         0         0         0         0         0         0         0         0
         0         0         0         0         0         0         0         0
         0         0         0         0         0         0         0         0
         0         0         0         0         0         0         0         0
         0         0         0         0         0         0         0         0
         0         0         0         0         0         0         0         0
         0         0         0         0         0         0         0         0
         0         0         0         0         0         0         0         0
         0         0         0         0         0         0         0         0
         0         0         0         0         0         0         0         0
         0         0         0         0         0         0         0         0
         0         0         0         0         0         0         0         0
         0         0         0         0         0         0         0         0
         0         0         0         0         0         0         0         0
         0         0         0         0         0         0         0         0
         0         0         0         0         0         0         0         0
         0         0         0         0         0         0         0         0
         0         0         0         0         0         0         0         0
         0         0         0         0         0         0         0         0
         0         0         0         0         0         0         0         0
         0         0         0         0         0         0         0         0
         0         0         0         0         0         0         0         0
         0         0         0         0         0         0         0         0
         0         0         0         0         0         0         0         0
         0         0         0         0         0         0         0         0
         0         0         0         0         0         0         0         0
         0         0         0         0         0         0         0         0
         0         0         0         0         0         0         0         0
         0         0         0         0         0         0         0         0
         0         0         0         0         0         0         0         0
         0         0         0         0         0         0         0         0
         0         0         0         0         0         0         0         0
         0         0         0         0         0         0         0         0
         0         0         0         0         0         0         0         0
         0         0         0         0         0         0         0         0
         0         0         0         0         0         0         0         0
         0         0         0         0         0         0         0         0
         0         0         0         0         0         0         0         0
         0         0         0         0         0         0         0         0
         0         0         0         0         0         0         0         0
         0         0         0         0         0         0         0         0
         0         0         0         0         0         0         0         0
         0         0         0         0         0         0         0         0
         0         0         0         0         0         0         0         0
         0         0         0         0         0         0         0         0
         0         0         0         0         0         0         0         0
         0         0         0         0         0         0         0         0
         0         0         0         0         0         0         0         0
         0         0         0         0         0         0         0         0
         0         0         0         0         0         0         0         0
         0         0         0         0         0         0         0         0
         0         0         0         0         0         0         0         0
         0         0         0         0         0         0         0         0
         0         0         0         0         0         0         0         0
         0         0         0         0         0         0         0         0
         0         0         0         0         0         0         0         0
         0         0         0         0         0         0         0         0
         0         0         0         0         0         0         0         0
         0         0         0         0         0         0         0         0
         0         0         0         0         0         0         0         0
         0         0         0         0         0         0         0         0
         0         0         0         0         0         0         0         0
         0         0         0         0         0         0         0         0
         0         0         0         0         0         0         0         0
         0         0         0         0         0         0         0         0
         0         0         0         0         0         0         0         0
         0         0         0         0         0         0         0         0
         0         0         0         0         0         0         0         0
         0         0         0         0         0         0         0         0
         0         0         0         0         0         0         0         0
         0         0         0         0         0         0         0         0
         0         0         0         0         0         0         0         0
         0         0         0         0         0         0         0         0
         0         0         0         0         0         0         0         0
         0         0         0         0         0         0         0         0
         0         0         0         0         0         0         0         0
         0         0         0         0         0         0         0         0
         0         0         0         0         0         0         0         0
         0         0         0         0         0         0         0         0
         0         0         0         0         0         0         0         0
         0         0         0         0         0         0         0         0
         0         0         0         0         0         0         0         0
         0         0         0         0         0         0         0         0
         0         0         0         0         0         0         0         0
         0         0         0         0         0         0         0         0
         0         0         0         0         0         0         0         0
         0         0         0         0         0         0         0         0
         0         0         0         0         0         0         0         0
         0         0         0         0         0         0         0         0
         0         0         0         0         0         0         0         0
         0         0         0         0         0         0         0         0
         0         0         0         0         0         0         0         0
         0         0         0         0         0         0         0         0
         0         0         0         0         0         0         0         0
         0         0         0         0         0         0         0         0
         0         0         0         0         0         0         0         0
         0         0         0         0         0         0         0         0
         0         0         0         0         0         0         0         0
         0         0         0         0         0         0         0         0
         0         0         0         0         0         0         0         0
         0         0         0         0         0         0         0         0
         0         0         0         0         0         0         0         0
         0         0         0         0         0         0         0         0
         0         0         0         0         0         0         0         0
         0         0         0         0         0         0         0         0
         0         0         0         0         0         0         0         0
         0         0         0         0         0         0         0         0
         0         0         0         0         0         0         0         0
         0         0         0         0         0         0         0         0
         0         0         0         0         0         0         0         0
         0         0         0         0         0         0         0         0
         0         0         0         0         0         0         0         0
         0         0         0         0         0         0         0         0
         0         0         0         0         0         0         0         0
         0         0         0         0         0         0         0         0
         0         0         0         0         0         0         0         0
         0         0         0         0         0         0         0         0
         0         0         0         0         0         0         0         0
         0         0         0         0         0         0         0         0
         0         0         0         0         0         0         0         0
         0         0         0         0         0         0         0         0
         0         0         0         0         0         0         0         0
         0         0         0         0         0         0         0         0
         0         0         0         0         0         0         0         0
         0         0         0         0         0         0         0         0
         0         0         0         0         0         0         0         0
         0         0         0         0         0         0         0         0
         0         0         0         0         0         0         0         0
         0         0         0         0         0         0         0         0
         0         0         0         0         0         0         0         0
         0         0         0         0         0         0         0         0
         0         0         0         0         0         0         0         0
         0         0         0         0         0         0         0         0
         0         0         0         0         0         0         0         0
         0         0         0         0         0         0         0         0
         0         0         0         0         0         0         0         0
         0         0         0         0         0         0         0         0
         0         0         0         0         0         0         0         0
         0         0         0         0         0         0         0         0
         0         0         0         0         0         0         0         0
         0         0         0         0         0         0         0         0
         0         0         0         0         0         0         0         0
         0         0         0         0         0         0         0         0
         0         0         0         0         0         0         0         0
         0         0         0         0         0         0         0         0
         0         0         0         0         0         0         0         0
         0         0         0         0         0         0         0         0
         0         0         0         0         0         0         0         0
         0         0         0         0         0         0         0         0
         0         0         0         0         0         0         0         0
         0         0         0         0         0         0         0         0
         0         0         0         0         0         0         0         0
         0         0         0         0         0         0         0         0
         0         0         0         0         0         0         0         0
         0         0         0         0         0         0         0         0
         0         0         0         0         0         0         0         0
         0         0         0         0         0         0         0         0
         0         0         0         0         0         0         0         0
         0         0         0         0         0         0         0         0
         0         0         0         0         0         0         0         0
         0         0         0         0         0         0         0         0
         0         0         0         0         0         0         0         0
         0         0         0         0         0         0         0         0
         0         0         0         0         0         0         0         0
         0         0         0         0         0         0         0         0
         0         0         0         0         0         0         0         0
         0         0         0         0         0         0         0         0
         0         0         0         0         0         0         0         0
         0         0         0         0         0         0         0         0
         0         0         0         0         0         0         0         0
         0         0         0         0         0         0         0         0
         0         0         0         0         0         0         0         0
         0         0         0         0         0         0         0         0
         0         0         0         0         0         0         0         0
         0         0         0         0         0         0         0         0
         0         0         0         0         0         0         0         0
         0         0         0         0         0         0         0         0
         0         0         0         0         0         0         0         0
         0         0         0         0         0         0         0         0
         0         0         0         0         0         0         0         0
         0         0         0         0         0         0         0         0
         0         0         0         0         0         0         0         0
         0         0         0         0         0         0         0         0
         0         0         0         0         0         0         0         0
         0         0         0         0         0         0         0         0
         0         0         0         0         0         0         0         0
         0         0         0         0         0         0         0         0
         0         0         0         0         0         0         0         0
         0         0         0         0         0         0         0         0
         0         0         0         0         0         0         0         0
         0         0         0         0         0         0         0         0
         0         0         0         0         0         0         0         0
         0         0         0         0         0         0         0         0
         0         0         0         0         0         0         0         0
         0         0         0         0         0         0         0         0
         0         0         0         0         0         0         0         0
         0         0         0         0         0         0         0         0
         0         0         0         0         0         0         0         0
         0         0         0         0         0         0         0         0
         0         0         0         0         0         0         0         0
         0         0         0         0         0         0         0         0
         0         0         0         0         0         0         0         0
         0         0         0         0         0         0         0         0
         0         0         0         0         0         0         0         0
         0         0         0         0         0         0         0         0
         0         0         0         0         0         0         0         0
         0         0         0         0         0         0         0         0
         0         0         0         0         0         0         0         0
         0         0         0         0         0         0         0         0
         0         0         0         0         0         0         0         0
         0         0         0         0         0         0         0         0
         0         0         0         0         0         0         0         0
         0         0         0         0         0         0         0         0
         0         0         0         0         0         0         0         0
         0         0         0         0         0         0         0         0
         0         0         0         0         0         0         0         0
         0         0         0         0         0         0         0         0
         0         0         0         0         0         0         0         0
         0         0         0         0         0         0         0         0
         0         0         0         0         0         0         0         0
         0         0         0         0         0         0         0         0
         0         0         0         0         0         0         0         0
         0         0         0         0         0         0         0         0
         0         0         0         0         0         0         0         0
         0         0         0         0         0         0         0         0
         0         0         0         0         0         0         0         0
         0         0         0         0         0         0         0         0
         0         0         0         0         0         0         0         0
         0         0         0         0         0         0         0         0
         0         0         0         0         0         0         0         0
         0         0         0         0         0         0         0         0
         0         0         0         0         0         0         0         0
         0         0         0         0         0         0         0         0
         0         0         0         0         0         0         0         0
         0         0         0         0         0         0         0         0
         0         0         0         0         0         0         0         0
         0         0         0         0         0         0         0         0
         0         0         0         0         0         0         0         0
         0         0         0         0         0         0         0         0
         0         0         0         0         0         0         0         0
         0         0         0         0         0         0         0         0
         0         0         0         0         0         0         0         0
         0         0         0         0         0         0         0         0
         0         0         0         0         0         0         0         0
         0         0         0         0         0         0         0         0
         0         0         0         0         0         0         0         0
         0         0         0         0         0         0         0         0
         0         0         0         0         0         0         0         0
         0         0         0         0         0         0         0         0
         0         0         0         0         0         0         0         0
         0         0         0         0         0         0         0         0
         0         0         0         0         0         0         0         0
         0         0         0         0         0         0         0         0
         0         0         0         0         0         0         0         0
         0         0         0         0         0         0         0         0
         0         0         0         0         0         0         0         0
         0         0         0         0         0         0         0         0
         0         0         0         0         0         0         0         0
         0         0         0         0         0         0         0         0
         0         0         0         0         0         0         0         0
         0         0         0         0         0         0         0         0
         0         0         0         0         0         0         0         0
         0         0         0         0         0         0         0         0
         0         0         0         0         0         0         0         0
         0         0         0         0         0         0         0         0
         0         0         0         0         0         0         0         0
         0         0         0         0         0         0         0         0
         0         0         0         0         0         0         0         0
         0         0         0         0         0         0         0         0
         0         0         0         0         0         0         0         0
         0         0         0         0         0         0         0         0
         0         0         0         0         0         0         0         0
         0         0         0         0         0         0         0         0
         0         0         0         0         0         0         0         0
         0         0         0         0         0         0         0         0
         0         0         0         0         0         0         0         0
         0         0         0         0         0         0         0         0
         0         0         0         0         0         0         0         0
         0         0         0         0         0         0         0         0
         0         0         0         0         0         0         0         0
         0         0         0         0         0         0         0         0
         0         0         0         0         0         0         0         0
         0         0         0         0         0         0         0         0
         0         0         0         0         0         0         0         0
         0         0         0         0         0         0         0         0
         0         0         0         0         0         0         0         0
         0         0         0         0         0         0         0         0
         0         0         0         0         0         0         0         0
         0         0         0         0         0         0         0         0
         0         0         0         0         0         0         0         0
         0         0         0         0         0         0         0         0
         0         0         0         0         0         0         0         0
         0         0         0         0         0         0         0         0
         0         0         0         0         0         0         0         0
         0         0         0         0         0         0         0         0
         0         0         0         0         0         0         0         0
         0         0         0         0         0         0         0         0
         0         0         0         0         0         0         0         0
         0         0         0         0         0         0         0         0
         0         0         0         0         0         0         0         0
         0         0         0         0         0         0         0         0
         0         0         0         0         0         0         0         0
         0         0         0         0         0         0         0         0
         0         0         0         0         0         0         0         0
         0         0         0         0         0         0         0         0
         0         0         0         0         0         0         0         0
         0         0         0         0         0         0         0         0
         0         0         0         0         0         0         0         0
         0         0         0         0         0         0         0         0
         0         0         0         0         0         0         0         0
         0         0         0         0         0         0         0         0
         0         0         0         0         0         0         0         0
         0         0         0         0         0         0         0         0
         0         0         0         0         0         0         0         0
         0         0         0         0         0         0         0         0
         0         0         0         0         0         0         0         0
         0         0         0         0         0         0         0         0
         0         0         0         0         0         0         0         0
         0         0         0         0         0         0         0         0
         0         0         0         0         0         0         0         0
         0         0         0         0         0         0         0         0
         0         0         0         0         0         0         0         0
         0         0         0         0         0         0         0         0
         0         0         0         0         0         0         0         0
         0         0         0         0         0         0         0         0
         0         0         0         0         0         0         0         0
         0         0         0         0         0         0         0         0
         0         0         0         0         0         0         0         0
         0         0         0         0         0         0         0         0
         0         0         0         0         0         0         0         0
         0         0         0         0         0         0         0         0
         0         0         0         0         0         0         0         0
         0         0         0         0         0         0         0         0
         0         0         0         0         0         0         0         0
         0         0         0         0         0         0         0         0
         0         0         0         0         0         0         0         0
         0         0         0         0         0         0         0         0
         0         0         0         0         0         0         0         0
         0         0         0         0         0         0         0         0
         0         0         0         0         0         0         0         0
         0         0         0         0         0         0         0         0
         0         0         0         0         0         0         0         0
         0         0         0         0         0         0         0         0
         0         0         0         0         0         0         0         0
         0         0         0         0         0         0         0         0
         0         0         0         0         0         0         0         0
         0         0         0         0         0         0         0         0
         0         0         0         0         0         0         0         0
         0         0         0         0         0         0         0         0
         0         0         0         0         0         0         0         0
         0         0         0         0         0         0         0         0
         0         0         0         0         0         0         0         0
         0         0         0         0         0         0         0         0
         0         0         0         0         0         0         0         0
         0         0         0         0         0         0         0         0
         0         0         0         0         0         0         0         0
         0         0         0         0         0         0         0         0
         0         0         0         0         0         0         0         0
         0         0         0         0         0         0         0         0
         0         0         0         0         0         0         0         0
         0         0         0         0         0         0         0         0
         0         0         0         0         0         0         0         0
         0         0         0         0         0         0         0         0
         0         0         0         0         0         0         0         0
         0         0         0         0         0         0         0         0
         0         0         0         0         0         0         0         0
         0         0         0         0         0         0         0         0
         0         0         0         0         0         0         0         0
         0         0         0         0         0         0         0         0
         0         0         0         0         0         0         0         0
         0         0         0         0         0         0         0         0
         0         0         0         0         0         0         0         0
         0         0         0         0         0         0         0         0
         0         0         0         0         0         0         0         0
         0         0         0         0         0         0         0         0
         0         0         0         0         0         0         0         0
         0         0         0         0         0         0         0         0
         0         0         0         0         0         0         0         0
         0         0         0         0         0         0         0         0
         0         0         0         0         0         0         0         0
         0         0         0         0         0         0         0         0
         0         0         0         0         0         0         0         0
         0         0         0         0         0         0         0         0
         0         0         0         0         0         0         0         0
         0         0         0         0         0         0         0         0
         0         0         0         0         0         0         0         0
         0         0         0         0         0         0         0         0
         0         0         0         0         0         0         0         0
         0         0         0         0         0         0         0         0
         0         0         0         0         0         0         0         0
         0         0         0         0         0         0         0         0
         0         0         0         0         0         0         0         0
         0         0         0         0         0         0         0         0
         0         0         0         0         0         0         0         0
         0         0         0         0         0         0         0         0
         0         0         0         0         0         0         0         0
         0         0         0         0         0         0         0         0
         0         0         0         0         0         0         0         0
         0         0         0         0         0         0         0         0
         0         0         0         0         0         0         0         0
         0         0         0         0         0         0         0         0
         0         0         0         0         0         0         0         0
         0         0         0         0         0         0         0         0
         0         0         0         0         0         0         0         0
         0         0         0         0         0         0         0         0
         0         0         0         0         0         0         0         0
         0         0         0         0         0         0         0         0
         0         0         0         0         0         0         0         0
         0         0         0         0         0         0         0         0
         0         0         0         0         0         0         0         0
         0         0         0         0         0         0         0         0
         0         0         0         0         0         0         0         0
         0         0         0         0         0         0         0         0
         0         0         0         0         0         0         0         0
         0         0         0         0         0         0         0         0
         0         0         0         0         0         0         0         0
         0         0         0         0         0         0         0         0
         0         0         0         0         0         0         0         0
         0         0         0         0         0         0         0         0
         0         0         0         0         0         0         0         0
         0         0         0         0         0         0         0         0
         0         0         0         0         0         0         0         0
         0         0         0         0         0         0         0         0
         0         0         0         0         0         0         0         0
         0         0         0         0         0         0         0         0
         0         0         0         0         0         0         0         0
         0         0         0         0         0         0         0         0
         0         0         0         0         0         0         0         0
         0         0         0         0         0         0         0         0
         0         0         0         0         0         0         0         0
         0         0         0         0         0         0         0         0
         0         0         0         0         0         0         0         0
         0         0         0         0         0         0         0         0
         0         0         0         0         0         0         0         0
         0         0         0         0         0         0         0         0
         0         0         0         0         0         0         0         0
         0         0         0         0         0         0         0         0
         0         0         0         0         0         0         0         0
         0         0         0         0         0         0         0         0
         0         0         0         0         0         0         0         0
         0         0         0         0         0         0         0         0
         0         0         0         0         0         0         0         0
         0         0         0         0         0         0         0         0
         0         0         0         0         0         0         0         0
         0         0         0         0         0         0         0         0
         0         0         0         0         0         0         0         0
         0         0         0         0         0         0         0         0
         0         0         0         0         0         0         0         0
         0         0         0         0         0         0         0         0
         0         0         0         0         0         0         0         0
         0         0         0         0         0         0         0         0
         0         0         0         0         0         0         0         0
         0         0         0         0         0         0         0         0
         0         0         0         0         0         0         0         0
         0         0         0         0         0         0         0         0
         0         0         0         0         0         0         0         0
         0         0         0         0         0         0         0         0
         0         0         0         0         0         0         0         0
         0         0         0         0         0         0         0         0
         0         0         0         0         0         0         0         0
         0         0         0         0         0         0         0         0
         0         0         0         0         0         0         0         0
         0         0         0         0         0         0         0         0
         0         0         0         0         0         0         0         0
         0         0         0         0         0         0         0         0
         0         0         0         0         0         0         0         0
         0         0         0         0         0         0         0         0
         0         0         0         0         0         0         0         0
         0         0         0         0         0         0         0         0
         0         0         0         0         0         0         0         0
         0         0         0         0         0         0         0         0
         0         0         0         0         0         0         0         0
         0         0         0         0         0         0         0         0
         0         0         0         0         0         0         0         0
         0         0         0         0         0         0         0         0
         0         0         0         0         0         0         0         0
         0         0         0         0         0         0         0         0
         0         0         0         0         0         0         0         0
         0         0         0         0         0         0         0         0
         0         0         0         0         0         0         0         0
         0         0         0         0         0         0         0         0
         0         0         0         0         0         0         0         0
         0         0         0         0         0         0         0         0
         0         0         0         0         0         0         0         0
         0         0         0         0         0         0         0         0
         0         0         0         0         0         0         0         0
         0         0         0         0         0         0         0         0
         0         0         0         0         0         0         0         0
         0         0         0         0         0         0         0         0
         0         0         0         0         0         0         0         0
         0         0         0         0         0         0         0         0
         0         0         0         0         0         0         0         0
         0         0         0         0         0         0         0         0
         0         0         0         0         0         0         0         0
         0         0         0         0         0         0         0         0
         0         0         0         0         0         0         0         0
         0         0         0         0         0         0         0         0
         0         0         0         0         0         0         0         0
         0         0         0         0         0         0         0         0
         0         0         0         0         0         0         0         0
         0         0         0         0         0         0         0         0
         0         0         0         0         0         0         0         0
         0         0         0         0         0         0         0         0
         0         0         0         0         0         0         0         0
         0         0         0         0         0         0         0         0
         0         0         0         0         0         0         0         0
         0         0         0         0         0         0         0         0
         0         0         0         0         0         0         0         0
         0         0         0         0         0         0         0         0
         0         0         0         0         0         0         0         0
         0         0         0         0         0         0         0         0
         0         0         0         0         0         0         0         0
         0         0         0         0         0         0         0         0
         0         0         0         0         0         0         0         0
         0         0         0         0         0         0         0         0
         0         0         0         0         0         0         0         0
         0         0         0         0         0         0         0         0
         0         0         0         0         0         0         0         0
         0         0         0         0         0         0         0         0
         0         0         0         0         0         0         0         0
         0         0         0         0         0         0         0         0
         0         0         0         0         0         0         0         0
         0         0         0         0         0         0         0         0
         0         0         0         0         0         0         0         0
         0         0         0         0         0         0         0         0
         0         0         0         0         0         0         0         0
         0         0         0         0         0         0         0         0
         0         0         0         0         0         0         0         0
         0         0         0         0         0         0         0         0
         0         0         0         0         0         0         0         0
         0         0         0         0         0         0         0         0
         0         0         0         0         0         0         0         0
         0         0         0         0         0         0         0         0
         0         0         0         0         0         0         0         0
         0         0         0         0         0         0         0         0
         0         0         0         0         0         0         0         0
         0         0         0         0         0         0         0         0
         0         0         0         0         0         0         0         0
         0         0         0         0         0         0         0         0
         0         0         0         0         0         0         0         0
         0         0         0         0         0         0         0         0
         0         0         0         0         0         0         0         0
         0         0         0         0         0         0         0         0
         0         0         0         0         0         0         0         0
         0         0         0         0         0         0         0         0
         0         0         0         0         0         0         0         0
         0         0         0         0         0         0         0         0
         0         0         0         0         0         0         0         0
         0         0         0         0         0         0         0         0
         0         0         0         0         0         0         0         0
         0         0         0         0         0         0         0         0
         0         0         0         0         0         0         0         0
         0         0         0         0         0         0         0         0
         0         0         0         0         0         0         0         0
         0         0         0         0         0         0         0         0
         0         0         0         0         0         0         0         0
         0         0         0         0         0         0         0         0
         0         0         0         0         0         0         0         0
         0         0         0         0         0         0         0         0
         0         0         0         0         0         0         0         0
         0         0         0         0         0         0         0         0
         0         0         0         0         0         0         0         0
         0         0         0         0         0         0         0         0
         0         0         0         0         0         0         0         0
         0         0         0         0         0         0         0         0
         0         0         0         0         0         0         0         0
         0         0         0         0         0         0         0         0
         0         0         0         0         0         0         0         0
         0         0         0         0         0         0         0         0
         0         0         0         0         0         0         0         0
         0         0         0         0         0         0         0         0
         0         0         0         0         0         0         0         0
         0         0         0         0         0         0         0         0
         0         0         0         0         0         0         0         0
         0         0         0         0         0         0         0         0
         0         0         0         0         0         0         0         0
         0         0         0         0         0         0         0         0
         0         0         0         0         0         0         0         0
         0         0         0         0         0         0         0         0
         0         0         0         0         0         0         0         0
         0         0         0         0         0         0         0         0
         0         0         0         0         0         0         0         0
         0         0         0         0         0         0         0         0
         0         0         0         0         0         0         0         0
         0         0         0         0         0         0         0         0
         0         0         0         0         0         0         0         0
         0         0         0         0         0         0         0         0
         0         0         0         0         0         0         0         0
         0         0         0         0         0         0         0         0
         0         0         0         0         0         0         0         0
         0         0         0         0         0         0         0         0
         0         0         0         0         0         0         0         0
         0         0         0         0         0         0         0         0
         0         0         0         0         0         0         0         0
         0         0         0         0         0         0         0         0
         0         0         0         0         0         0         0         0
         0         0         0         0         0         0         0         0
         0         0         0         0         0         0         0         0
         0         0         0         0         0         0         0         0
         0         0         0         0         0         0         0         0
         0         0         0         0         0         0         0         0
         0         0         0         0         0         0         0         0
         0         0         0         0         0         0         0         0
         0         0         0         0         0         0         0         0
         0         0         0         0         0         0         0         0
         0         0         0         0         0         0         0         0
         0         0         0         0         0         0         0         0
         0         0         0         0         0         0         0         0
         0         0         0         0         0         0         0         0
         0         0         0         0         0         0         0         0
         0         0         0         0         0         0         0         0
         0         0         0         0         0         0         0         0
         0         0         0         0         0         0         0         0
         0         0         0         0         0         0         0         0
         0         0         0         0         0         0         0         0
         0         0         0         0         0         0         0         0
         0         0         0         0         0         0         0         0
         0         0         0         0         0         0         0         0
         0         0         0         0         0         0         0         0
         0         0         0         0         0         0         0         0
         0         0         0         0         0         0         0         0
         0         0         0         0         0         0         0         0
         0         0         0         0         0         0         0         0
         0         0         0         0         0         0         0         0
         0         0         0         0         0         0         0         0
         0         0         0         0         0         0         0         0
         0         0         0         0         0         0         0         0
         0         0         0         0         0         0         0         0
         0         0         0         0         0         0         0         0
         0         0         0         0         0         0         0         0
         0         0         0         0         0         0         0         0
         0         0         0         0         0         0         0         0
         0         0         0         0         0         0         0         0
         0         0         0         0         0         0         0         0
         0         0         0         0         0         0         0         0
         0         0         0         0         0         0         0         0
         0         0         0         0         0         0         0         0
         0         0         0         0         0         0         0         0
         0         0         0         0         0         0         0         0
         0         0         0         0         0         0         0         0
         0         0         0         0         0         0         0         0
         0         0         0         0         0         0         0         0
         0         0         0         0         0         0         0         0
         0         0         0         0         0         0         0         0
         0         0         0         0         0         0         0         0
         0         0         0         0         0         0         0         0
         0         0         0         0         0         0         0         0
         0         0         0         0         0         0         0         0
         0         0         0         0         0         0         0         0
         0         0         0         0         0         0         0         0
         0         0         0         0         0         0         0         0
         0         0         0         0         0         0         0         0
         0         0         0         0         0         0         0         0
         0         0         0         0         0         0         0         0
         0         0         0         0         0         0         0         0
         0         0         0         0         0         0         0         0
         0         0         0         0         0         0         0         0
         0         0         0         0         0         0         0         0
         0         0         0         0         0         0         0         0
         0         0         0         0         0         0         0         0
         0         0         0         0         0         0         0         0
         0         0         0         0         0         0         0         0
         0         0         0         0         0         0         0         0
         0         0         0         0         0         0         0         0
         0         0         0         0         0         0         0         0
         0         0         0         0         0         0         0         0
         0         0         0         0         0         0         0         0
         0         0         0         0         0         0         0         0
         0         0         0         0         0         0         0         0
         0         0         0         0         0         0         0         0
         0         0         0         0         0         0         0         0
         0         0         0         0         0         0         0         0
         0         0         0         0         0         0         0         0
         0         0         0         0         0         0         0         0
         0         0         0         0         0         0         0         0
         0         0         0         0         0         0         0         0
         0         0         0         0         0         0         0         0
         0         0         0         0         0         0         0         0
         0         0         0         0         0         0         0         0
         0         0         0         0         0         0         0         0
         0         0         0         0         0         0         0         0
         0         0         0         0         0         0         0         0
         0         0         0         0         0         0         0         0
         0         0         0         0         0         0         0         0
         0         0         0         0         0         0         0         0
         0         0         0         0         0         0         0         0
         0         0         0         0         0         0         0         0
         0         0         0         0         0         0         0         0
         0         0         0         0         0         0         0         0
         0         0         0         0         0         0         0         0
         0         0         0         0         0         0         0         0
         0         0         0         0         0         0         0         0
         0         0         0         0         0         0         0         0
         0         0         0         0         0         0         0         0
         0         0         0         0         0         0         0         0
         0         0         0         0         0         0         0         0
         0         0         0         0         0         0         0         0
         0         0         0         0         0         0         0         0
         0         0         0         0         0         0         0         0
         0         0         0         0         0         0         0         0
         0         0         0         0         0         0         0         0
         0         0         0         0         0         0         0         0
         0         0         0         0         0         0         0         0
         0         0         0         0         0         0         0         0
         0         0         0         0         0         0         0         0
         0         0         0         0         0         0         0         0
         0         0         0         0         0         0         0         0
         0         0         0         0         0         0         0         0
         0         0         0         0         0         0         0         0
         0         0         0         0         0         0         0         0
         0         0         0         0         0         0         0         0
         0         0         0         0         0         0         0         0
         0         0         0         0         0         0         0         0
         0         0         0         0         0         0         0         0
         0         0         0         0         0         0         0         0
         0         0         0         0         0         0         0         0
         0         0         0         0         0         0         0         0
         0         0         0         0         0         0         0         0
         0         0         0         0         0         0         0         0
         0         0         0         0         0         0         0         0
         0         0         0         0         0         0         0         0
         0         0         0         0         0         0         0         0
         0         0         0         0         0         0         0         0
         0         0         0         0         0         0         0         0
         0         0         0         0         0         0         0         0
         0         0         0         0         0         0         0         0
         0         0         0         0         0         0         0         0
         0         0         0         0         0         0         0         0
         0         0         0         0         0         0         0         0
         0         0         0         0         0         0         0         0
         0         0         0         0         0         0         0         0
         0         0         0         0         0         0         0         0
         0         0         0         0         0         0         0         0
         0         0         0         0         0         0         0         0
         0         0         0         0         0         0         0         0
         0         0         0         0         0         0         0         0
         0         0         0         0         0         0         0         0
         0         0         0         0         0         0         0         0
         0         0         0         0         0         0         0         0
         0         0         0         0         0         0         0         0
         0         0         0         0         0         0         0         0
         0         0         0         0         0         0         0         0
         0         0         0         0         0         0         0         0
         0         0         0         0         0         0         0         0
         0         0         0         0         0         0         0         0
         0         0         0         0         0         0         0         0
         0         0         0         0         0         0         0         0
         0         0         0         0         0         0         0         0
         0         0         0         0         0         0         0         0
         0         0         0         0         0         0         0         0
         0         0         0         0         0         0         0         0
         0         0         0         0         0         0         0         0
         0         0         0         0         0         0         0         0
         0         0         0         0         0         0         0         0
         0         0         0         0         0         0         0         0
         0         0         0         0         0         0         0         0
         0         0         0         0         0         0         0         0
         0         0         0         0         0         0         0         0
         0         0         0         0         0         0         0         0
         0         0         0         0         0         0         0         0
         0         0         0         0         0         0         0         0
         0         0         0         0         0         0         0         0
         0         0         0         0         0         0         0         0
         0         0         0         0         0         0         0         0
         0         0         0         0         0         0         0         0
         0         0         0         0         0         0         0         0
         0         0         0         0         0         0         0         0
         0         0         0         0         0         0         0         0
         0         0         0         0         0         0         0         0
         0         0         0         0         0         0         0         0
         0         0         0         0         0         0         0         0
         0         0         0         0         0         0         0         0
         0         0         0         0         0         0         0         0
         0         0         0         0         0         0         0         0
         0         0         0         0         0         0         0         0
         0         0         0         0         0         0         0         0
         0         0         0         0         0         0         0         0
         0         0         0         0         0         0         0         0
         0         0         0         0         0         0         0         0
         0         0         0         0         0         0         0         0
         0         0         0         0         0         0         0         0
         0         0         0         0         0         0         0         0
         0         0         0         0         0         0         0         0
         0         0         0         0         0         0         0         0
         0         0         0         0         0         0         0         0
         0         0         0         0         0         0         0         0
         0         0         0         0         0         0         0         0
         0         0         0         0         0         0         0         0
         0         0         0         0         0         0         0         0
         0         0         0         0         0         0         0         0
         0         0         0         0         0         0         0         0
         0         0         0         0         0         0         0         0
         0         0         0         0         0         0         0         0
         0         0         0         0         0         0         0         0
         0         0         0         0         0         0         0         0
         0         0         0         0         0         0         0         0
         0         0         0         0         0         0         0         0
         0         0         0         0         0         0         0         0
         0         0         0         0         0         0         0         0
         0         0         0         0         0         0         0         0
         0         0         0         0         0         0         0         0
         0         0         0         0         0         0         0         0
         0         0         0         0         0         0         0         0
         0         0         0         0         0         0         0         0
         0         0         0         0         0         0         0         0
         0         0         0         0         0         0         0         0
         0         0         0         0         0         0         0         0
         0         0         0         0         0         0         0         0
         0         0         0         0         0         0         0         0
         0         0         0         0         0         0         0         0
         0         0         0         0         0         0         0         0
         0         0         0         0         0         0         0         0
         0         0         0         0         0         0         0         0
         0         0         0         0         0         0         0         0
         0         0         0         0         0         0         0         0
         0         0         0         0         0         0         0         0
         0         0         0         0         0         0         0         0
         0         0         0         0         0         0         0         0
         0         0         0         0         0         0         0         0
         0         0         0         0         0         0         0         0
         0         0         0         0         0         0         0         0
         0         0         0         0         0         0         0         0
         0         0         0         0         0         0         0         0
         0         0         0         0         0         0         0         0
         0         0         0         0         0         0         0         0
         0         0         0         0         0         0         0         0
         0         0         0         0         0         0         0         0
         0         0         0         0         0         0         0         0
         0         0         0         0         0         0         0         0
         0         0         0         0         0         0         0         0
         0         0         0         0         0         0         0         0
         0         0         0         0         0         0         0         0
         0         0         0         0         0         0         0         0
         0         0         0         0         0         0         0         0
         0         0         0         0         0         0         0         0
         0         0         0         0         0         0         0         0
         0         0         0         0         0         0         0         0
         0         0         0         0         0         0         0         0
         0         0         0         0         0         0         0         0
         0         0         0         0         0         0         0         0
         0         0         0         0         0         0         0         0
         0         0         0         0         0         0         0         0
         0         0         0         0         0         0         0         0
         0         0         0         0         0         0         0         0
         0         0         0         0         0         0         0         0
         0         0         0         0         0         0         0         0
         0         0         0         0         0         0         0         0
         0         0         0         0         0         0         0         0
         0         0         0         0         0         0         0         0
         0         0         0         0         0         0         0         0
         0         0         0         0         0         0         0         0
         0         0         0         0         0         0         0         0
         0         0         0         0         0         0         0         0
         0         0         0         0         0         0         0         0
         0         0         0         0         0         0         0         0
         0         0         0         0         0         0         0         0
         0         0         0         0         0         0         0         0
         0         0         0         0         0         0         0         0
         0         0         0         0         0         0         0         0
         0         0         0         0         0         0         0         0
         0         0         0         0         0         0         0         0
         0         0         0         0         0         0         0         0
         0         0         0         0         0         0         0         0
         0         0         0         0         0         0         0         0
         0         0         0         0         0         0         0         0
         0         0         0         0         0         0         0         0
         0         0         0         0         0         0         0         0
         0         0         0         0         0         0         0         0
         0         0         0         0         0         0         0         0
         0         0         0         0         0         0         0         0
         0         0         0         0         0         0         0         0
         0         0         0         0         0         0         0         0
         0         0         0         0         0         0         0         0
         0         0         0         0         0         0         0         0
         0         0         0         0         0         0         0         0
         0         0         0         0         0         0         0         0
         0         0         0         0         0         0         0         0
         0         0         0         0         0         0         0         0
         0         0         0         0         0         0         0         0
         0         0         0         0         0         0         0         0
         0         0         0         0         0         0         0         0
         0         0         0         0         0         0         0         0
         0         0         0         0         0         0         0         0
         0         0         0         0         0         0         0         0
         0         0         0         0         0         0         0         0
         0         0         0         0         0         0         0         0
         0         0         0         0         0         0         0         0
         0         0         0         0         0         0         0         0
         0         0         0         0         0         0         0         0
         0         0         0         0         0         0         0         0
         0         0         0         0         0         0         0         0
         0         0         0         0         0         0         0         0
         0         0         0         0         0         0         0         0
         0         0         0         0         0         0         0         0
         0         0         0         0         0         0         0         0
         0         0         0         0         0         0         0         0
         0         0         0         0         0         0         0         0
         0         0         0         0         0         0         0         0
         0         0         0         0         0         0         0         0
         0         0         0         0         0         0         0         0
         0         0         0         0         0         0         0         0
         0         0         0         0         0         0         0         0
         0         0         0         0         0         0         0         0
         0         0         0         0         0         0         0         0
         0         0         0         0         0         0         0         0
         0         0         0         0         0         0         0         0
         0         0         0         0         0         0         0         0
         0         0         0         0         0         0         0         0
         0         0         0         0         0         0         0         0
         0         0         0         0         0         0         0         0
         0         0         0         0         0         0         0         0
         0         0         0         0         0         0         0         0
         0         0         0         0         0         0         0         0
         0         0         0         0         0         0         0         0
         0         0         0         0         0         0         0         0
         0         0         0         0         0         0         0         0
         0         0         0         0         0         0         0         0
         0         0         0         0         0         0         0         0
         0         0         0         0         0         0         0         0
         0         0         0         0         0         0         0         0
         0         0         0         0         0         0         0         0
         0         0         0         0         0         0         0         0
         0         0         0         0         0         0         0         0
         0         0         0         0         0         0         0         0
         0         0         0         0         0         0         0         0
         0         0         0         0         0         0         0         0
         0         0         0         0         0         0         0         0
         0         0         0         0         0         0         0         0
         0         0         0         0         0         0         0         0
         0         0         0         0         0         0         0         0
         0         0         0         0         0         0         0         0
         0         0         0         0         0         0         0         0
         0         0         0         0         0         0         0         0
         0         0         0         0         0         0         0         0
         0         0         0         0         0         0         0         0
         0         0         0         0         0         0         0         0
         0         0         0         0         0         0         0         0
         0         0         0         0         0         0         0         0
         0         0         0         0         0         0         0         0
         0         0         0         0         0         0         0         0
         0         0         0         0         0         0         0         0
         0         0         0         0         0         0         0         0
         0         0         0         0         0         0         0         0
         0         0         0         0         0         0         0         0
         0         0         0         0         0         0         0         0
         0         0         0         0         0         0         0         0
         0         0         0         0         0         0         0         0
         0         0         0         0         0         0         0         0
         0         0         0         0         0         0         0         0
         0         0         0         0         0         0         0         0
         0         0         0         0         0         0         0         0
         0         0         0         0         0         0         0         0
         0         0         0         0         0         0         0         0
         0         0         0         0         0         0         0         0
         0         0         0         0         0         0         0         0
         0         0         0         0         0         0         0         0
         0         0         0         0         0         0         0         0
         0         0         0         0         0         0         0         0
         0         0         0         0         0         0         0         0
         0         0         0         0         0         0         0         0
         0         0         0         0         0         0         0         0
         0         0         0         0         0         0         0         0
         0         0         0         0         0         0         0         0
         0         0         0         0         0         0         0         0
         0         0         0         0         0         0         0         0
         0         0         0         0         0         0         0         0
         0         0         0         0         0         0         0         0
         0         0         0         0         0         0         0         0
         0         0         0         0         0         0         0         0
         0         0         0         0         0         0         0         0
         0         0         0         0         0         0         0         0
         0         0         0         0         0         0         0         0
         0         0         0         0         0         0         0         0
         0         0         0         0         0         0         0         0
         0         0         0         0         0         0         0         0
         0         0         0         0         0         0         0         0
         0         0         0         0         0         0         0         0
         0         0         0         0         0         0         0         0
         0         0         0         0         0         0         0         0
         0         0         0         0         0         0         0         0
         0         0         0         0         0         0         0         0
         0         0         0         0         0         0         0         0
         0         0         0         0         0         0         0         0
         0         0         0         0         0         0         0         0
         0         0         0         0         0         0         0         0
         0         0         0         0         0         0         0         0
         0         0         0         0         0         0         0         0
         0         0         0         0         0         0         0         0
         0         0         0         0         0         0         0         0
         0         0         0         0         0         0         0         0
         0         0         0         0         0         0         0         0
         0         0         0         0         0         0         0         0
         0         0         0         0         0         0         0         0
         0         0         0         0         0         0         0         0
         0         0         0         0         0         0         0         0
         0         0         0         0         0         0         0         0
         0         0         0         0         0         0         0         0
         0         0         0         0         0         0         0         0
         0         0         0         0         0         0         0         0
         0         0         0         0         0         0         0         0
         0         0         0         0         0         0         0         0
         0         0         0         0         0         0         0         0
         0         0         0         0         0         0         0         0
         0         0         0         0         0         0         0         0
         0         0         0         0         0         0         0         0
         0         0         0         0         0         0         0         0
         0         0         0         0         0         0         0         0
         0         0         0         0         0         0         0         0
         0         0         0         0         0         0         0         0
         0         0         0         0         0         0         0         0
         0         0         0         0         0         0         0         0
         0         0         0         0         0         0         0         0
         0         0         0         0         0         0         0         0
         0         0         0         0         0         0         0         0
         0         0         0         0         0         0         0         0
         0         0         0         0         0         0         0         0
         0         0         0         0         0         0         0         0
         0         0         0         0         0         0         0         0
         0         0         0         0         0         0         0         0
         0         0         0         0         0         0         0         0
         0         0         0         0         0         0         0         0
         0         0         0         0         0         0         0         0
         0         0         0         0         0         0         0         0
         0         0         0         0         0         0         0         0
         0         0         0         0         0         0         0         0
         0         0         0         0         0         0         0         0
         0         0         0         0         0         0         0         0
         0         0         0         0         0         0         0         0
         0         0         0         0         0         0         0         0
         0         0         0         0         0         0         0         0
         0         0         0         0         0         0         0         0
         0         0         0         0         0         0         0         0
         0         0         0         0         0         0         0         0
         0         0         0         0         0         0         0         0
         0         0         0         0         0         0         0         0
         0         0         0         0         0         0         0         0
         0         0         0         0         0         0         0         0
         0         0         0         0         0         0         0         0
         0         0         0         0         0         0         0         0
         0         0         0         0         0         0         0         0
         0         0         0         0         0         0         0         0
         0         0         0         0         0         0         0         0
         0         0         0         0         0         0         0         0
         0         0         0         0         0         0         0         0
         0         0         0         0         0         0         0         0
         0         0         0         0         0         0         0         0
         0         0         0         0         0         0         0         0
         0         0         0         0         0         0         0         0
         0         0         0         0         0         0         0         0
         0         0         0         0         0         0         0         0
         0         0         0         0         0         0         0         0
         0         0         0         0         0         0         0         0
         0         0         0         0         0         0         0         0
         0         0         0         0         0         0         0         0
         0         0         0         0         0         0         0         0
         0         0         0         0         0         0         0         0
         0         0         0         0         0         0         0         0
         0         0         0         0         0         0         0         0
         0         0         0         0         0         0         0         0
         0         0         0         0         0         0         0         0
         0         0         0         0         0         0         0         0
         0         0         0         0         0         0         0         0
         0         0         0         0         0         0         0         0
         0         0         0         0         0         0         0         0
         0         0         0         0         0         0         0         0
         0         0         0         0         0         0         0         0
         0         0         0         0         0         0         0         0
         0         0         0         0         0         0         0         0
         0         0         0         0         0         0         0         0
         0         0         0         0         0         0         0         0
         0         0         0         0         0         0         0         0
         0         0         0         0         0         0         0         0
         0         0         0         0         0         0         0         0
         0         0         0         0         0         0         0         0
         0         0         0         0         0         0         0         0
         0         0         0         0         0         0         0         0
         0         0         0         0         0         0         0         0
         0         0         0         0         0         0         0         0
         0         0         0         0         0         0         0         0
         0         0         0         0         0         0         0         0
         0         0         0         0         0         0         0         0
         0         0         0         0         0         0         0         0
         0         0         0         0         0         0         0         0
         0         0         0         0         0         0         0         0
         0         0         0         0         0         0         0         0
         0         0         0         0         0         0         0         0
         0         0         0         0         0         0         0         0
         0         0         0         0         0         0         0         0
         0         0         0         0         0         0         0         0
         0         0         0         0         0         0         0         0
         0         0         0         0         0         0         0         0
         0         0         0         0         0         0         0         0
         0         0         0         0         0         0         0         0
         0         0         0         0         0         0         0         0
         0         0         0         0         0         0         0         0
         0         0         0         0         0         0         0         0
         0         0         0         0         0         0         0         0
         0         0         0         0         0         0         0         0
         0         0         0         0         0         0         0         0
         0         0         0         0         0         0         0         0
         0         0         0         0         0         0         0         0
         0         0         0         0         0         0         0         0
         0         0         0         0         0         0         0         0
         0         0         0         0         0         0         0         0
         0         0         0         0         0         0         0         0
         0         0         0         0         0         0         0         0
         0         0         0         0         0         0         0         0
         0         0         0         0         0         0         0         0
         0         0         0         0         0         0         0         0
         0         0         0         0         0         0         0         0
         0         0         0         0         0         0         0         0
         0         0         0         0         0         0         0         0
         0         0         0         0         0         0         0         0
         0         0         0         0         0         0         0         0
         0         0         0         0         0         0         0         0
         0         0         0         0         0         0         0         0
         0         0         0         0         0         0         0         0
         0         0         0         0         0         0         0         0
         0         0         0         0         0         0         0         0
         0         0         0         0         0         0         0         0
         0         0         0         0         0         0         0         0
         0         0         0         0         0         0         0         0
         0         0         0         0         0         0         0         0
         0         0         0         0         0         0         0         0
         0         0         0         0         0         0         0         0
         0         0         0         0         0         0         0         0
         0         0         0         0         0         0         0         0
         0         0         0         0         0         0         0         0
         0         0         0         0         0         0         0         0
         0         0         0         0         0         0         0         0
         0         0         0         0         0         0         0         0
         0         0         0         0         0         0         0         0
         0         0         0         0         0         0         0         0
         0         0         0         0         0         0         0         0
         0         0         0         0         0         0         0         0
         0         0         0         0         0         0         0         0
         0         0         0         0         0         0         0         0
         0         0         0         0         0         0         0         0
         0         0         0         0         0         0         0         0
         0         0         0         0         0         0         0         0
         0         0         0         0         0         0         0         0
         0         0         0         0         0         0         0         0
         0         0         0         0         0         0         0         0
         0         0         0         0         0         0         0         0
         0         0         0         0         0         0         0         0
         0         0         0         0         0         0         0         0
         0         0         0         0         0         0         0         0
         0         0         0         0         0         0         0         0
         0         0         0         0         0         0         0         0
         0         0         0         0         0         0         0         0
         0         0         0         0         0         0         0         0
         0         0         0         0         0         0         0         0
         0         0         0         0         0         0         0         0
         0         0         0         0         0         0         0         0
         0         0         0         0         0         0         0         0
         0         0         0         0         0         0         0         0
         0         0         0         0         0         0         0         0
         0         0         0         0         0         0         0         0
         0         0         0         0         0         0         0         0
         0         0         0         0         0         0         0         0
         0         0         0         0         0         0         0         0
         0         0         0         0         0         0         0         0
         0         0         0         0         0         0         0         0
         0         0         0         0         0         0         0         0
         0         0         0         0         0         0         0         0
         0         0         0         0         0         0         0         0
         0         0         0         0         0         0         0         0
         0         0         0         0         0         0         0         0
         0         0         0         0         0         0         0         0
         0         0         0         0         0         0         0         0
         0         0         0         0         0         0         0         0
         0         0         0         0         0         0         0         0
         0         0         0         0         0         0         0         0
         0         0         0         0         0         0         0         0
         0         0         0         0         0         0         0         0
         0         0         0         0         0         0         0         0
         0         0         0         0         0         0         0         0
         0         0         0         0         0         0         0         0
         0         0         0         0         0         0         0         0
         0         0         0         0         0         0         0         0
         0         0         0         0         0         0         0         0
         0         0         0         0         0         0         0         0
         0         0         0         0         0         0         0         0
         0         0         0         0         0         0         0         0
         0         0         0         0         0         0         0         0
         0         0         0         0         0         0         0         0
         0         0         0         0         0         0         0         0
         0         0         0         0         0         0         0         0
         0         0         0         0         0         0         0         0
         0         0         0         0         0         0         0         0
         0         0         0         0         0         0         0         0
         0         0         0         0         0         0         0         0
         0         0         0         0         0         0         0         0
         0         0         0         0         0         0         0         0
         0         0         0         0         0         0         0         0
         0         0         0         0         0         0         0         0
         0         0         0         0         0         0         0         0
         0         0         0         0         0         0         0         0
         0         0         0         0         0         0         0         0
         0         0         0         0         0         0         0         0
         0         0         0         0         0         0         0         0
         0         0         0         0         0         0         0         0
         0         0         0         0         0         0         0         0
         0         0         0         0         0         0         0         0
         0         0         0         0         0         0         0         0
         0         0         0         0         0         0         0         0
         0         0         0         0         0         0         0         0
         0         0         0         0         0         0         0         0
         0         0         0         0         0         0         0         0
         0         0         0         0         0         0         0         0
         0         0         0         0         0         0         0         0
         0         0         0         0         0         0         0         0
         0         0         0         0         0         0         0         0
         0         0         0         0         0         0         0         0
         0         0         0         0         0         0         0         0
         0         0         0         0         0         0         0         0
         0         0         0         0         0         0         0         0
         0         0         0         0         0         0         0         0
         0         0         0         0         0         0         0         0
         0         0         0         0         0         0         0         0
         0         0         0         0         0         0         0         0
         0         0         0         0         0         0         0         0
         0         0         0         0         0         0         0         0
         0         0         0         0         0         0         0         0
         0         0         0         0         0         0         0         0
         0         0         0         0         0         0         0         0
         0         0         0         0         0         0         0         0
         0         0         0         0         0         0         0         0
         0         0         0         0         0         0         0         0
         0         0         0         0         0         0         0         0
         0         0         0         0         0         0         0         0
         0         0         0         0         0         0         0         0
         0         0         0         0         0         0         0         0
         0         0         0         0         0         0         0         0
         0         0         0         0         0         0         0         0
         0         0         0         0         0         0         0         0
         0         0         0         0         0         0         0         0
         0         0         0         0         0         0         0         0
         0         0         0         0         0         0         0         0
         0         0         0         0         0         0         0         0
         0         0         0         0         0         0         0         0
         0         0         0         0         0         0         0         0
         0         0         0         0         0         0         0         0
         0         0         0         0         0         0         0         0
         0         0         0         0         0         0         0         0
         0         0         0         0         0         0         0         0
         0         0         0         0         0         0         0         0
         0         0         0         0         0         0         0         0
         0         0         0         0         0         0         0         0
         0         0         0         0         0         0         0         0
         0         0         0         0         0         0         0         0
         0         0         0         0         0         0         0         0
         0         0         0         0         0         0         0         0
         0         0         0         0         0         0         0         0
         0         0         0         0         0         0         0         0
         0         0         0         0         0         0         0         0
         0         0         0         0         0         0         0         0
         0         0         0         0         0         0         0         0
         0         0         0         0         0         0         0         0
         0         0         0         0         0         0         0         0
         0         0         0         0         0         0         0         0
         0         0         0         0         0         0         0         0
         0         0         0         0         0         0         0         0
         0         0         0         0         0         0         0         0
         0         0         0         0         0         0         0         0
         0         0         0         0         0         0         0         0
         0         0         0         0         0         0         0         0
         0         0         0         0         0         0         0         0
         0         0         0         0         0         0         0         0
         0         0         0         0         0         0         0         0
         0         0         0         0         0         0         0         0
         0         0         0         0         0         0         0         0
         0         0         0         0         0         0         0         0
         0         0         0         0         0         0         0         0
         0         0         0         0         0         0         0         0
         0         0         0         0         0         0         0         0
         0         0         0         0         0         0         0         0
         0         0         0         0         0         0         0         0
         0         0         0         0         0         0         0         0
         0         0         0         0         0         0         0         0
         0         0         0         0         0         0         0         0
         0         0         0         0         0         0         0         0
         0         0         0         0         0         0         0         0
         0         0         0         0         0         0         0         0
         0         0         0         0         0         0         0         0
         0         0         0         0         0         0         0         0
         0         0         0         0         0         0         0         0
         0         0         0         0         0         0         0         0
         0         0         0         0         0         0         0         0
         0         0         0         0         0         0         0         0
         0         0         0         0         0         0         0         0
         0         0         0         0         0         0         0         0
         0         0         0         0         0         0         0         0
         0         0         0         0         0         0         0         0
         0         0         0         0         0         0         0         0
         0         0         0         0         0         0         0         0
         0         0         0         0         0         0         0         0
         0         0         0         0         0         0         0         0
         0         0         0         0         0         0         0         0
         0         0         0         0         0         0         0         0
         0         0         0         0         0         0         0         0
         0         0         0         0         0         0         0         0
         0         0         0         0         0         0         0         0
         0         0         0         0         0         0         0         0
         0         0         0         0         0         0         0         0
         0         0         0         0         0         0         0         0
         0         0         0         0         0         0         0         0
         0         0         0         0         0         0         0         0
         0         0         0         0         0         0         0         0
         0         0         0         0         0         0         0         0
         0         0         0         0         0         0         0         0
         0         0         0         0         0         0         0         0
         0         0         0         0         0         0         0         0
         0         0         0         0         0         0         0         0
         0         0         0         0         0         0         0         0
         0         0         0         0         0         0         0         0
         0         0         0         0         0         0         0         0
         0         0         0         0         0         0         0         0
         0         0         0         0         0         0         0         0
         0         0         0         0         0         0         0         0
         0         0         0         0         0         0         0         0
         0         0         0         0         0         0         0         0
         0         0         0         0         0         0         0         0
         0         0         0         0         0         0         0         0
         0         0         0         0         0         0         0         0
         0         0         0         0         0         0         0         0
         0         0         0         0         0         0         0         0
         0         0         0         0         0         0         0         0
         0         0         0         0         0         0         0         0
         0         0         0         0         0         0         0         0
         0         0         0         0         0         0         0         0
         0         0         0         0         0         0         0         0
         0         0         0         0         0         0         0         0
         0         0         0         0         0         0         0         0
         0         0         0         0         0         0         0         0
         0         0         0         0         0         0         0         0
         0         0         0         0         0         0         0         0
         0         0         0         0         0         0         0         0
         0         0         0         0         0         0         0         0
         0         0         0         0         0         0         0         0
         0         0         0         0         0         0         0         0
         0         0         0         0         0         0         0         0
         0         0         0         0         0         0         0         0
         0         0         0         0         0         0         0         0
         0         0         0         0         0         0         0         0
         0         0         0         0         0         0         0         0
         0         0         0         0         0         0         0         0
         0         0         0         0         0         0         0         0
         0         0         0         0         0         0         0         0
         0         0         0         0         0         0         0         0
         0         0         0         0         0         0         0         0
         0         0         0         0         0         0         0         0
         0         0         0         0         0         0         0         0
         0         0         0         0         0         0         0         0
         0         0         0         0         0         0         0         0
         0         0         0         0         0         0         0         0
         0         0         0         0         0         0         0         0
         0         0         0         0         0         0         0         0
         0         0         0         0         0         0         0         0
         0         0         0         0         0         0         0         0
         0         0         0         0         0         0         0         0
         0         0         0         0         0         0         0         0
         0         0         0         0         0         0         0         0
         0         0         0         0         0         0         0         0
         0         0         0         0         0         0         0         0
         0         0         0         0         0         0         0         0
         0         0         0         0         0         0         0         0
         0         0         0         0         0         0         0         0
         0         0         0         0         0         0         0         0
         0         0         0         0         0         0         0         0
         0         0         0         0         0         0         0         0
         0         0         0         0         0         0         0         0
         0         0         0         0         0         0         0         0
         0         0         0         0         0         0         0         0
         0         0         0         0         0         0         0         0
         0         0         0         0         0         0         0         0
         0         0         0         0         0         0         0         0
         0         0         0         0         0         0         0         0
         0         0         0         0         0         0         0         0
         0         0         0         0         0         0         0         0
         0         0         0         0         0         0         0         0
         0         0         0         0         0         0         0         0
         0         0         0         0         0         0         0         0
         0         0         0         0         0         0         0         0
         0         0         0         0         0         0         0         0
         0         0         0         0         0         0         0         0
         0         0         0         0         0         0         0         0
         0         0         0         0         0         0         0         0
         0         0         0         0         0         0         0         0
         0         0         0         0         0         0         0         0
         0         0         0         0         0         0         0         0
         0         0         0         0         0         0         0         0
         0         0         0         0         0         0         0         0
         0         0         0         0         0         0         0         0
         0         0         0         0         0         0         0         0
         0         0         0         0         0         0         0         0
         0         0         0         0         0         0         0         0
         0         0         0         0         0         0         0         0
         0         0         0         0         0         0         0         0
         0         0         0         0         0         0         0         0
         0         0         0         0         0         0         0         0
         0         0         0         0         0         0         0         0
         0         0         0         0         0         0         0         0
         0         0         0         0         0         0         0         0
         0         0         0         0         0         0         0         0
         0         0         0         0         0         0         0         0
         0         0         0         0         0         0         0         0
         0         0         0         0         0         0         0         0
         0         0         0         0         0         0         0         0
         0         0         0         0         0         0         0         0
         0         0         0         0         0         0         0         0
         0         0         0         0         0         0         0         0
         0         0         0         0         0         0         0         0
         0         0         0         0         0         0         0         0
         0         0         0         0         0         0         0         0
         0         0         0         0         0         0         0         0
         0         0         0         0         0         0         0         0
         0         0         0         0         0         0         0         0
         0         0         0         0         0         0         0         0
         0         0         0         0         0         0         0         0
         0         0         0         0         0         0         0         0
         0         0         0         0         0         0         0         0
         0         0         0         0         0         0         0         0
         0         0         0         0         0         0         0         0
         0         0         0         0         0         0         0         0
         0         0         0         0         0         0         0         0
         0         0         0         0         0         0         0         0
         0         0         0         0         0         0         0         0
         0         0         0         0         0         0         0         0
         0         0         0         0         0         0         0         0
         0         0         0         0         0         0         0         0
         0         0         0         0         0         0         0         0
         0         0         0         0         0         0         0         0
         0         0         0         0         0         0         0         0
         0         0         0         0         0         0         0         0
         0         0         0         0         0         0         0         0
         0         0         0         0         0         0         0         0
         0         0         0         0         0         0         0         0
         0         0         0         0         0         0         0         0
         0         0         0         0         0         0         0         0
         0         0         0         0         0         0         0         0
         0         0         0         0         0         0         0         0
         0         0         0         0         0         0         0         0
         0         0         0         0         0         0         0         0
         0         0         0         0         0         0         0         0
         0         0         0         0         0         0         0         0
         0         0         0         0         0         0         0         0
         0         0         0         0         0         0         0         0
         0         0         0         0         0         0         0         0
         0         0         0         0         0         0         0         0
         0         0         0         0         0         0         0         0
         0         0         0         0         0         0         0         0
         0         0         0         0         0         0         0         0
         0         0         0         0         0         0         0         0
         0         0         0         0         0         0         0         0
         0         0         0         0         0         0         0         0
         0         0         0         0         0         0         0         0
         0         0         0         0         0         0         0         0
         0         0         0         0         0         0         0         0
         0         0         0         0         0         0         0         0
         0         0         0         0         0         0         0         0
         0         0         0         0         0         0         0         0
         0         0         0         0         0         0         0         0
         0         0         0         0         0         0         0         0
         0         0         0         0         0         0         0         0
         0         0         0         0         0         0         0         0
         0         0         0         0         0         0         0         0
         0         0         0         0         0         0         0         0
         0         0         0         0         0         0         0         0
         0         0         0         0         0         0         0         0
         0         0         0         0         0         0         0         0
         0         0         0         0         0         0         0         0
         0         0         0         0         0         0         0         0
         0         0         0         0         0         0         0         0
         0         0         0         0         0         0         0         0
         0         0         0         0         0         0         0         0
         0         0         0         0         0         0         0         0
         0         0         0         0         0         0         0         0
         0         0         0         0         0         0         0         0
         0         0         0         0         0         0         0         0
         0         0         0         0         0         0         0         0
         0         0         0         0         0         0         0         0
         0         0         0         0         0         0         0         0
         0         0         0         0         0         0         0         0
         0         0         0         0         0         0         0         0
         0         0         0         0         0         0         0         0
         0         0         0         0         0         0         0         0
         0         0         0         0         0         0         0         0
         0         0         0         0         0         0         0         0
         0         0         0         0         0         0         0         0
         0         0         0         0         0         0         0         0
         0         0         0         0         0         0         0         0
         0         0         0         0         0         0         0         0
         0         0         0         0         0         0         0         0
         0         0         0         0         0         0         0         0
         0         0         0         0         0         0         0         0
         0         0         0         0         0         0         0         0
         0         0         0         0         0         0         0         0
         0         0         0         0         0         0         0         0
         0         0         0         0         0         0         0         0
         0         0         0         0         0         0         0         0
         0         0         0         0         0         0         0         0
         0         0         0         0         0         0         0         0
         0         0         0         0         0         0         0         0
         0         0         0         0         0         0         0         0
         0         0         0         0         0         0         0         0
         0         0         0         0         0         0         0         0
         0         0         0         0         0         0         0         0
         0         0         0         0         0         0         0         0
         0         0         0         0         0         0         0         0
         0         0         0         0         0         0         0         0
         0         0         0         0         0         0         0         0
         0         0         0         0         0         0         0         0
         0         0         0         0         0         0         0         0
         0         0         0         0         0         0         0         0
         0         0         0         0         0         0         0         0
         0         0         0         0         0         0         0         0
         0         0         0         0         0         0         0         0
         0         0         0         0         0         0         0         0
         0         0         0         0         0         0         0         0
         0         0         0         0         0         0         0         0
         0         0         0         0         0         0         0         0
         0         0         0         0         0         0         0         0
         0         0         0         0         0         0         0         0
         0         0         0         0         0         0         0         0
         0         0         0         0         0         0         0         0
         0         0         0         0         0         0         0         0
         0         0         0         0         0         0         0         0
         0         0         0         0         0         0         0         0
         0         0         0         0         0         0         0         0
         0         0         0         0         0         0         0         0
         0         0         0         0         0         0         0         0
         0         0         0         0         0         0         0         0
         0         0         0         0         0         0         0         0
         0         0         0         0         0         0         0         0
         0         0         0         0         0         0         0         0
         0         0         0         0         0         0         0         0
         0         0         0         0         0         0         0         0
         0         0         0         0         0         0         0         0
         0         0         0         0         0         0         0         0
         0         0         0         0         0         0         0         0
         0         0         0         0         0         0         0         0
         0         0         0         0         0         0         0         0
         0         0         0         0         0         0         0         0
         0         0         0         0         0         0         0         0
         0         0         0         0         0         0         0         0
         0         0         0         0         0         0         0         0
         0         0         0         0         0         0         0         0
         0         0         0         0         0         0         0         0
         0         0         0         0         0         0         0         0
         0         0         0         0         0         0         0         0
         0         0         0         0         0         0         0         0
         0         0         0         0         0         0         0         0
         0         0         0         0         0         0         0         0
         0         0         0         0         0         0         0         0
         0         0         0         0         0         0         0         0
         0         0         0         0         0         0         0         0
         0         0         0         0         0         0         0         0
         0         0         0         0         0         0         0         0
         0         0         0         0         0         0         0         0
         0         0         0         0         0         0         0         0
         0         0         0         0         0         0         0         0
         0         0         0         0         0         0         0         0
         0         0         0         0         0         0         0         0
         0         0         0         0         0         0         0         0
         0         0         0         0         0         0         0         0
         0         0         0         0         0         0         0         0
         0         0         0         0         0         0         0         0
         0         0         0         0         0         0         0         0
         0         0         0         0         0         0         0         0
         0         0         0         0         0         0         0         0
         0         0         0         0         0         0         0         0
         0         0         0         0         0         0         0         0
         0         0         0         0         0         0         0         0
         0         0         0         0         0         0         0         0
         0         0         0         0         0         0         0         0
         0         0         0         0         0         0         0         0
         0         0         0         0         0         0         0         0
         0         0         0         0         0         0         0         0
         0         0         0         0         0         0         0         0
         0         0         0         0         0         0         0         0
         0         0         0         0         0         0         0         0
         0         0         0         0         0         0         0         0
         0         0         0         0         0         0         0         0
         0         0         0         0         0         0         0         0
         0         0         0         0         0         0         0         0
         0         0         0         0         0         0         0         0
         0         0         0         0         0         0         0         0
         0         0         0         0         0         0         0         0
         0         0         0         0         0         0         0         0
         0         0         0         0         0         0         0         0
         0         0         0         0         0         0         0         0
         0         0         0         0         0         0         0         0
         0         0         0         0         0         0         0         0
         0         0         0         0         0         0         0         0
         0         0         0         0         0         0         0         0
         0         0         0         0         0         0         0         0
         0         0         0         0         0         0         0         0
         0         0         0         0         0         0         0         0
         0         0         0         0         0         0         0         0
         0         0         0         0         0         0         0         0
         0         0         0         0         0         0         0         0
         0         0         0         0         0         0         0         0
         0         0         0         0         0         0         0         0
         0         0         0         0         0         0         0         0
         0         0         0         0         0         0         0         0
         0         0         0         0         0         0         0         0
         0         0         0         0         0         0         0         0
         0         0         0         0         0         0         0         0
         0         0         0         0         0         0         0         0
         0         0         0         0         0         0         0         0
         0         0         0         0         0         0         0         0
         0         0         0         0         0         0         0         0
         0         0         0         0         0         0         0         0
         0         0         0         0         0         0         0         0
         0         0         0         0         0         0         0         0
         0         0         0         0         0         0         0         0
         0         0         0         0         0         0         0         0
         0         0         0         0         0         0         0         0
         0         0         0         0         0         0         0         0
         0         0         0         0         0         0         0         0
         0         0         0         0         0         0         0         0
         0         0         0         0         0         0         0         0
         0         0         0         0         0         0         0         0
         0         0         0         0         0         0         0         0
         0         0         0         0         0         0         0         0
         0         0         0         0         0         0         0         0
         0         0         0         0         0         0         0         0
         0         0         0         0         0         0         0         0
         0         0         0         0         0         0         0         0
         0         0         0         0         0         0         0         0
         0         0         0         0         0         0         0         0
         0         0         0         0         0         0         0         0
         0         0         0         0         0         0         0         0
         0         0         0         0         0         0         0         0
         0         0         0         0         0         0         0         0
         0         0         0         0         0         0         0         0
         0         0         0         0         0         0         0         0
         0         0         0         0         0         0         0         0
         0         0         0         0         0         0         0         0
         0         0         0         0         0         0         0         0
         0         0         0         0         0         0         0         0
         0         0         0         0         0         0         0         0
         0         0         0         0         0         0         0         0
         0         0         0         0         0         0         0         0
         0         0         0         0         0         0         0         0
         0         0         0         0         0         0         0         0
         0         0         0         0         0         0         0         0
         0         0         0         0         0         0         0         0
         0         0         0         0         0         0         0         0
         0         0         0         0         0         0         0         0
         0         0         0         0         0         0         0         0
         0         0         0         0         0         0         0         0
         0         0         0         0         0         0         0         0
         0         0         0         0         0         0         0         0
         0         0         0         0         0         0         0         0
         0         0         0         0         0         0         0         0
         0         0         0         0         0         0         0         0
         0         0         0         0         0         0         0         0
         0         0         0         0         0         0         0         0
         0         0         0         0         0         0         0         0
         0         0         0         0         0         0         0         0
         0         0         0         0         0         0         0         0
         0         0         0         0         0         0         0         0
         0         0         0         0         0         0         0         0
         0         0         0         0         0         0         0         0
         0         0         0         0         0         0         0         0
         0         0         0         0         0         0         0         0
         0         0         0         0         0         0         0         0
         0         0         0         0         0         0         0         0
         0         0         0         0         0         0         0         0
         0         0         0         0         0         0         0         0
         0         0         0         0         0         0         0         0
         0         0         0         0         0         0         0         0
         0         0         0         0         0         0         0         0
         0         0         0         0         0         0         0         0
         0         0         0         0         0         0         0         0
         0         0         0         0         0         0         0         0
         0         0         0         0         0         0         0         0
         0         0         0         0         0         0         0         0
         0         0         0         0         0         0         0         0
         0         0         0         0         0         0         0         0
         0         0         0         0         0         0         0         0
         0         0         0         0         0         0         0         0
         0         0         0         0         0         0         0         0
         0         0         0         0         0         0         0         0
         0         0         0         0         0         0         0         0
         0         0         0         0         0         0         0         0
         0         0         0         0         0         0         0         0
         0         0         0         0         0         0         0         0
         0         0         0         0         0         0         0         0
         0         0         0         0         0         0         0         0
         0         0         0         0         0         0         0         0
         0         0         0         0         0         0         0         0
         0         0         0         0         0         0         0         0
         0         0         0         0         0         0         0         0
         0         0         0         0         0         0         0         0
         0         0         0         0         0         0         0         0
         0         0         0         0         0         0         0         0
         0         0         0         0         0         0         0         0
         0         0         0         0         0         0         0         0
         0         0         0         0         0         0         0         0
         0         0         0         0         0         0         0         0
         0         0         0         0         0         0         0         0
         0         0         0         0         0         0         0         0
         0         0         0         0         0         0         0         0
         0         0         0         0         0         0         0         0
         0         0         0         0         0         0         0         0
         0         0         0         0         0         0         0         0
         0         0         0         0         0         0         0         0
         0         0         0         0         0         0         0         0
         0         0         0         0         0         0         0         0
         0         0         0         0         0         0         0         0
         0         0         0         0         0         0         0         0
         0         0         0         0         0         0         0         0
         0         0         0         0         0         0         0         0
         0         0         0         0         0         0         0         0
         0         0         0         0         0         0         0         0
         0         0         0         0         0         0         0         0
         0         0         0         0         0         0         0         0
         0         0         0         0         0         0         0         0
         0         0         0         0         0         0         0         0
         0         0         0         0         0         0         0         0
         0         0         0         0         0         0         0         0
         0         0         0         0         0         0         0         0
         0         0         0         0         0         0         0         0
         0         0         0         0         0         0         0         0
         0         0         0         0         0         0         0         0
         0         0         0         0         0         0         0         0
         0         0         0         0         0         0         0         0
         0         0         0         0         0         0         0         0
         0         0         0         0         0         0         0         0
         0         0         0         0         0         0         0         0
         0         0         0         0         0         0         0         0
         0         0         0         0         0         0         0         0
         0         0         0         0         0         0         0         0
         0         0         0         0         0         0         0         0
         0         0         0         0         0         0         0         0
         0         0         0         0         0         0         0         0
         0         0         0         0         0         0         0         0
         0         0         0         0         0         0         0         0
         0         0         0         0         0         0         0         0
         0         0         0         0         0         0         0         0
         0         0         0         0         0         0         0         0
         0         0         0         0         0         0         0         0
         0         0         0         0         0         0         0         0
         0         0         0         0         0         0         0         0
         0         0         0         0         0         0         0         0
         0         0         0         0         0         0         0         0
         0         0         0         0         0         0         0         0
         0         0         0         0         0         0         0         0
         0         0         0         0         0         0         0         0
         0         0         0         0         0         0         0         0
         0         0         0         0         0         0         0         0
         0         0         0         0         0         0         0         0
         0         0         0         0         0         0         0         0
         0         0         0         0         0         0         0         0
         0         0         0         0         0         0         0         0
         0         0         0         0         0         0         0         0
         0         0         0         0         0         0         0         0
         0         0         0         0         0         0         0         0
         0         0         0         0         0         0         0         0
         0         0         0         0         0         0         0         0
         0         0         0         0         0         0         0         0
         0         0         0         0         0         0         0         0
         0         0         0         0         0         0         0         0
         0         0         0         0         0         0         0         0
         0         0         0         0         0         0         0         0
         0         0         0         0         0         0         0         0
         0         0         0         0         0         0         0         0
         0         0         0         0         0         0         0         0
         0         0         0         0         0         0         0         0
         0         0         0         0         0         0         0         0
         0         0         0         0         0         0         0         0
         0         0         0         0         0         0         0         0
         0         0         0         0         0         0         0         0
         0         0         0         0         0         0         0         0
         0         0         0         0         0         0         0         0
         0         0         0         0         0         0         0         0
         0         0         0         0         0         0         0         0
         0         0         0         0         0         0         0         0
         0         0         0         0         0         0         0         0
         0         0         0         0         0         0         0         0
         0         0         0         0         0         0         0         0
         0         0         0         0         0         0         0         0
         0         0         0         0         0         0         0         0
         0         0         0         0         0         0         0         0
         0         0         0         0         0         0         0         0
         0         0         0         0         0         0         0         0
         0         0         0         0         0         0         0         0
         0         0         0         0         0         0         0         0
         0         0         0         0         0         0         0         0
         0         0         0         0         0         0         0         0
         0         0         0         0         0         0         0         0
         0         0         0         0         0         0         0         0
         0         0         0         0         0         0         0         0
         0         0         0         0         0         0         0         0
         0         0         0         0         0         0         0         0
         0         0         0         0         0         0         0         0
         0         0         0         0         0         0         0         0
         0         0         0         0         0         0         0         0
         0         0         0         0         0         0         0         0
         0         0         0         0         0         0         0         0
         0         0         0         0         0         0         0         0
         0         0         0         0         0         0         0         0
         0         0         0         0         0         0         0         0
         0         0         0         0         0         0         0         0
         0         0         0         0         0         0         0         0
         0         0         0         0         0         0         0         0
         0         0         0         0         0         0         0         0
         0         0         0         0         0         0         0         0
         0         0         0         0         0         0         0         0
         0         0         0         0         0         0         0         0
         0         0         0         0         0         0         0         0
         0         0         0         0         0         0         0         0
         0         0         0         0         0         0         0         0
         0         0         0         0         0         0         0         0
         0         0         0         0         0         0         0         0
         0         0         0         0         0         0         0         0
         0         0         0         0         0         0         0         0
         0         0         0         0         0         0         0         0
         0         0         0         0         0         0         0         0
         0         0         0         0         0         0         0         0
         0         0         0         0         0         0         0         0
         0         0         0         0         0         0         0         0
         0         0         0         0         0         0         0         0
         0         0         0         0         0         0         0         0
         0         0         0         0         0         0         0         0
         0         0         0         0         0         0         0         0
         0         0         0         0         0         0         0         0
         0         0         0         0         0         0         0         0
         0         0         0         0         0         0         0         0
         0         0         0         0         0         0         0         0
         0         0         0         0         0         0         0         0
         0         0         0         0         0         0         0         0
         0         0         0         0         0         0         0         0
         0         0         0         0         0         0         0         0
         0         0         0         0         0         0         0         0
         0         0         0         0         0         0         0         0
         0         0         0         0         0         0         0         0
         0         0         0         0         0         0         0         0
         0         0         0         0         0         0         0         0
         0         0         0         0         0         0         0         0
         0         0         0         0         0         0         0         0
         0         0         0         0         0         0         0         0
         0         0         0         0         0         0         0         0
         0         0         0         0         0         0         0         0
         0         0         0         0         0         0         0         0
         0         0         0         0         0         0         0         0
         0         0         0         0         0         0         0         0
         0         0         0         0         0         0         0         0
         0         0         0         0         0         0         0         0
         0         0         0         0         0         0         0         0
         0         0         0         0         0         0         0         0
         0         0         0         0         0         0         0         0
         0         0         0         0         0         0         0         0
         0         0         0         0         0         0         0         0
         0         0         0         0         0         0         0         0
         0         0         0         0         0         0         0         0
         0         0         0         0         0         0         0         0
         0         0         0         0         0         0         0         0
         0         0         0         0         0         0         0         0
         0         0         0         0         0         0         0         0
         0         0         0         0         0         0         0         0
         0         0         0         0         0         0         0         0
         0         0         0         0         0         0         0         0
         0         0         0         0         0         0         0         0
         0         0         0         0         0         0         0         0
         0         0         0         0         0         0         0         0
         0         0         0         0         0         0         0         0
         0         0         0         0         0         0         0         0
         0         0         0         0         0         0         0         0
         0         0         0         0         0         0         0         0
         0         0         0         0         0         0         0         0
         0         0         0         0         0         0         0         0
         0         0         0         0         0         0         0         0
         0         0         0         0         0         0         0         0
         0         0         0         0         0         0         0         0
         0         0         0         0         0         0         0         0
         0         0         0         0         0         0         0         0
         0         0         0         0         0         0         0         0
         0         0         0         0         0         0         0         0
         0         0         0         0         0         0         0         0
         0         0         0         0         0         0         0         0
         0         0         0         0         0         0         0         0
         0         0         0         0         0         0         0         0
         0         0         0         0         0         0         0         0
         0         0         0         0         0         0         0         0
         0         0         0         0         0         0         0         0
         0         0         0         0         0         0         0         0
         0         0         0         0         0         0         0         0
         0         0         0         0         0         0         0         0
         0         0         0         0         0         0         0         0
         0         0         0         0         0         0         0         0
         0         0         0         0         0         0         0         0
         0         0         0         0         0         0         0         0
         0         0         0         0         0         0         0         0
         0         0         0         0         0         0         0         0
         0         0         0         0         0         0         0         0
         0         0         0         0         0         0         0         0
         0         0         0         0         0         0         0         0
         0         0         0         0         0         0         0         0
         0         0         0         0         0         0         0         0
         0         0         0         0         0         0         0         0
         0         0         0         0         0         0         0         0
         0         0         0         0         0         0         0         0
         0         0         0         0         0         0         0         0
         0         0         0         0         0         0         0         0
         0         0         0         0         0         0         0         0
         0         0         0         0         0         0         0         0
         0         0         0         0         0         0         0         0
         0         0         0         0         0         0         0         0
         0         0         0         0         0         0         0         0
         0         0         0         0         0         0         0         0
         0         0         0         0         0         0         0         0
         0         0         0         0         0         0         0         0
         0         0         0         0         0         0         0         0
         0         0         0         0         0         0         0         0
         0         0         0         0         0         0         0         0
         0         0         0         0         0         0         0         0
         0         0         0         0         0         0         0         0
         0         0         0         0         0         0         0         0
         0         0         0         0         0         0         0         0
         0         0         0         0         0         0         0         0
         0         0         0         0         0         0         0         0
         0         0         0         0         0         0         0         0
         0         0         0         0         0         0         0         0
         0         0         0         0         0         0         0         0
         0         0         0         0         0         0         0         0
         0         0         0         0         0         0         0         0
         0         0         0         0         0         0         0         0
         0         0         0         0         0         0         0         0
         0         0         0         0         0         0         0         0
         0         0         0         0         0         0         0         0
         0         0         0         0         0         0         0         0
         0         0         0         0         0         0         0         0
         0         0         0         0         0         0         0         0
         0         0         0         0         0         0         0         0
         0         0         0         0         0         0         0         0
         0         0         0         0         0         0         0         0
         0         0         0         0         0         0         0         0
         0         0         0         0         0         0         0         0
         0         0         0         0         0         0         0         0
         0         0         0         0         0         0         0         0
         0         0         0         0         0         0         0         0
         0         0         0         0         0         0         0         0
         0         0         0         0         0         0         0         0
         0         0         0         0         0         0         0         0
         0         0         0         0         0         0         0         0
         0         0         0         0         0         0         0         0
         0         0         0         0         0         0         0         0
         0         0         0         0         0         0         0         0
         0         0         0         0         0         0         0         0
         0         0         0         0         0         0         0         0
         0         0         0         0         0         0         0         0
         0         0         0         0         0         0         0         0
         0         0         0         0         0         0         0         0
         0         0         0         0         0         0         0         0
         0         0         0         0         0         0         0         0
         0         0         0         0         0         0         0         0
         0         0         0         0         0         0         0         0
         0         0         0         0         0         0         0         0
         0         0         0         0         0         0         0         0
         0         0         0         0         0         0         0         0
         0         0         0         0         0         0         0         0
         0         0         0         0         0         0         0         0
         0         0         0         0         0         0         0         0
         0         0         0         0         0         0         0         0
         0         0         0         0         0         0         0         0
         0         0         0         0         0         0         0         0
         0         0         0         0         0         0         0         0
         0         0         0         0         0         0         0         0
         0         0         0         0         0         0         0         0
         0         0         0         0         0         0         0         0
         0         0         0         0         0         0         0         0
         0         0         0         0         0         0         0         0
         0         0         0         0         0         0         0         0
         0         0         0         0         0         0         0         0
         0         0         0         0         0         0         0         0
         0         0         0         0         0         0         0         0
         0         0         0         0         0         0         0         0
         0         0         0         0         0         0         0         0
         0         0         0         0         0         0         0         0
         0         0         0         0         0         0         0         0
         0         0         0         0         0         0         0         0
         0         0         0         0         0         0         0         0
         0         0         0         0         0         0         0         0
         0         0         0         0         0         0         0         0
         0         0         0         0         0         0         0         0
         0         0         0         0         0         0         0         0
         0         0         0         0         0         0         0         0
         0         0         0         0         0         0         0         0
         0         0         0         0         0         0         0         0
         0         0         0         0         0         0         0         0
         0         0         0         0         0         0         0         0
         0         0         0         0         0         0         0         0
         0         0         0         0         0         0         0         0
         0         0         0         0         0         0         0         0
         0         0         0         0         0         0         0         0
         0         0         0         0         0         0         0         0
         0         0         0         0         0         0         0         0
         0         0         0         0         0         0         0         0
         0         0         0         0         0         0         0         0
         0         0         0         0         0         0         0         0
         0         0         0         0         0         0         0         0
         0         0         0         0         0         0         0         0
         0         0         0         0         0         0         0         0
         0         0         0         0         0         0         0         0
         0         0         0         0         0         0         0         0
         0         0         0         0         0         0         0         0
         0         0         0         0         0         0         0         0
         0         0         0         0         0         0         0         0
         0         0         0         0         0         0         0         0
         0         0         0         0         0         0         0         0
         0         0         0         0         0         0         0         0
         0         0         0         0         0         0         0         0
         0         0         0         0         0         0         0         0
         0         0         0         0         0         0         0         0
         0         0         0         0         0         0         0         0
         0         0         0         0         0         0         0         0
         0         0         0         0         0         0         0         0
         0         0         0         0         0         0         0         0
         0         0         0         0         0         0         0         0
         0         0         0         0         0         0         0         0
         0         0         0         0         0         0         0         0
         0         0         0         0         0         0         0         0
         0         0         0         0         0         0         0         0
         0         0         0         0         0         0         0         0
         0         0         0         0         0         0         0         0
         0         0         0         0         0         0         0         0
         0         0         0         0         0         0         0         0
         0         0         0         0         0         0         0         0
         0         0         0         0         0         0         0         0
         0         0         0         0         0         0         0         0
         0         0         0         0         0         0         0         0
         0         0         0         0         0         0         0         0
         0         0         0         0         0         0         0         0
         0         0         0         0         0         0         0         0
         0         0         0         0         0         0         0         0
         0         0         0         0         0         0         0         0
         0         0         0         0         0         0         0         0
         0         0         0         0         0         0         0         0
         0         0         0         0         0         0         0         0
         0         0         0         0         0         0         0         0
         0         0         0         0         0         0         0         0
         0         0         0         0         0         0         0         0
         0         0         0         0         0         0         0         0
         0         0         0         0         0         0         0         0
         0         0         0         0         0         0         0         0
         0         0         0         0         0         0         0         0
         0         0         0         0         0         0         0         0
         0         0         0         0         0         0         0         0
         0         0         0         0         0         0         0         0
         0         0         0         0         0         0         0         0
         0         0         0         0         0         0         0         0
         0         0         0         0         0         0         0         0
         0         0         0         0         0         0         0         0
         0         0         0         0         0         0         0         0
         0         0         0         0         0         0         0         0
         0         0         0         0         0         0         0         0
         0         0         0         0         0         0         0         0
         0         0         0         0         0         0         0         0
         0         0         0         0         0         0         0         0
         0         0         0         0         0         0         0         0
         0         0         0         0         0         0         0         0
         0         0         0         0         0         0         0         0
         0         0         0         0         0         0         0         0
         0         0         0         0         0         0         0         0
         0         0         0         0         0         0         0         0
         0         0         0         0         0         0         0         0
         0         0         0         0         0         0         0         0
         0         0         0         0         0         0         0         0
         0         0         0         0         0         0         0         0
         0         0         0         0         0         0         0         0
         0         0         0         0         0         0         0         0
         0         0         0         0         0         0         0         0
         0         0         0         0         0         0         0         0
         0         0         0         0         0         0         0         0
         0         0         0         0         0         0         0         0
         0         0         0         0         0         0         0         0
         0         0         0         0         0         0         0         0
         0         0         0         0         0         0         0         0
         0         0         0         0         0         0         0         0
         0         0         0         0         0         0         0         0
         0         0         0         0         0         0         0         0
         0         0         0         0         0         0         0         0
         0         0         0         0         0         0         0         0
         0         0         0         0         0         0         0         0
         0         0         0         0         0         0         0         0
         0         0         0         0         0         0         0         0
         0         0         0         0         0         0         0         0
         0         0         0         0         0         0         0         0
         0         0         0         0         0         0         0         0
         0         0         0         0         0         0         0         0
         0         0         0         0         0         0         0         0
         0         0         0         0         0         0         0         0
         0         0         0         0         0         0         0         0
         0         0         0         0         0         0         0         0
         0         0         0         0         0         0         0         0
         0         0         0         0         0         0         0         0
         0         0         0         0         0         0         0         0
         0         0         0         0         0         0         0         0
         0         0         0         0         0         0         0         0
         0         0         0         0         0         0         0         0
         0         0         0         0         0         0         0         0
         0         0         0         0         0         0         0         0
         0         0         0         0         0         0         0         0
         0         0         0         0         0         0         0         0
         0         0         0         0         0         0         0         0
         0         0         0         0         0         0         0         0
         0         0         0         0         0         0         0         0
         0         0         0         0         0         0         0         0
         0         0         0         0         0         0         0         0
         0         0         0         0         0         0         0         0
         0         0         0         0         0         0         0         0
         0         0         0         0         0         0         0         0
         0         0         0         0         0         0         0         0
         0         0         0         0         0         0         0         0
         0         0         0         0         0         0         0         0
         0         0         0         0         0         0         0         0
         0         0         0         0         0         0         0         0
         0         0         0         0         0         0         0         0
         0         0         0         0         0         0         0         0
         0         0         0         0         0         0         0         0
         0         0         0         0         0         0         0         0
         0         0         0         0         0         0         0         0
         0         0         0         0         0         0         0         0
         0         0         0         0         0         0         0         0
         0         0         0         0         0         0         0         0
         0         0         0         0         0         0         0         0
         0         0         0         0         0         0         0         0
         0         0         0         0         0         0         0         0
         0         0         0         0         0         0         0         0
         0         0         0         0         0         0         0         0
         0         0         0         0         0         0         0         0
         0         0         0         0         0         0         0         0
         0         0         0         0         0         0         0         0
         0         0         0         0         0         0         0         0
         0         0         0         0         0         0         0         0
         0         0         0         0         0         0         0         0
         0         0         0         0         0         0         0         0
         0         0         0         0         0         0         0         0
         0         0         0         0         0         0         0         0
         0         0         0         0         0         0         0         0
         0         0         0         0         0         0         0         0
         0         0         0         0         0         0         0         0
         0         0         0         0         0         0         0         0
         0         0         0         0         0         0         0         0
         0         0         0         0         0         0         0         0
         0         0         0         0         0         0         0         0
         0         0         0         0         0         0         0         0
         0         0         0         0         0         0         0         0
         0         0         0         0         0         0         0         0
         0         0         0         0         0         0         0         0
         0         0         0         0         0         0         0         0
         0         0         0         0         0         0         0         0
         0         0         0         0         0         0         0         0
         0         0         0         0         0         0         0         0
         0         0         0         0         0         0         0         0
         0         0         0         0         0         0         0         0
         0         0         0         0         0         0         0         0
         0         0         0         0         0         0         0         0
         0         0         0         0         0         0         0         0
         0         0         0         0         0         0         0         0
         0         0         0         0         0         0         0         0
         0         0         0         0         0         0         0         0
         0         0         0         0         0         0         0         0
         0         0         0         0         0         0         0         0
         0         0         0         0         0         0         0         0
         0         0         0         0         0         0         0         0
         0         0         0         0         0         0         0         0
         0         0         0         0         0         0         0         0
         0         0         0         0         0         0         0         0
         0         0         0         0         0         0         0         0
         0         0         0         0         0         0         0         0
         0         0         0         0         0         0         0         0
         0         0         0         0         0         0         0         0
         0         0         0         0         0         0         0         0
         0         0         0         0         0         0         0         0
         0         0         0         0         0         0         0         0
         0         0         0         0         0         0         0         0
         0         0         0         0         0         0         0         0
         0         0         0         0         0         0         0         0
         0         0         0         0         0         0         0         0
         0         0         0         0         0         0         0         0
         0         0         0         0         0         0         0         0
         0         0         0         0         0         0         0         0
         0         0         0         0         0         0         0         0
         0         0         0         0         0         0         0         0
         0         0         0         0         0         0         0         0
         0         0         0         0         0         0         0         0
         0         0         0         0         0         0         0         0
         0         0         0         0         0         0         0         0
         0         0         0         0         0         0         0         0
         0         0         0         0         0         0         0         0
         0         0         0         0         0         0         0         0
         0         0         0         0         0         0         0         0
         0         0         0         0         0         0         0         0
         0         0         0         0         0         0         0         0
         0         0         0         0         0         0         0         0
         0         0         0         0         0         0         0         0
         0         0         0         0         0         0         0         0
         0         0         0         0         0         0         0         0
         0         0         0         0         0         0         0         0
         0         0         0         0         0         0         0         0
         0         0         0         0         0         0         0         0
         0         0         0         0         0         0         0         0
         0         0         0         0         0         0         0         0
         0         0         0         0         0         0         0         0
         0         0         0         0         0         0         0         0
         0         0         0         0         0         0         0         0
         0         0         0         0         0         0         0         0
         0         0         0         0         0         0         0         0
         0         0         0         0         0         0         0         0
         0         0         0         0         0         0         0         0
         0         0         0         0         0         0         0         0
         0         0         0         0         0         0         0         0
         0         0         0         0         0         0         0         0
         0         0         0         0         0         0         0         0
         0         0         0         0         0         0         0         0
         0         0         0         0         0         0         0         0
         0         0         0         0         0         0         0         0
         0         0         0         0         0         0         0         0
         0         0         0         0         0         0         0         0
         0         0         0         0         0         0         0         0
         0         0         0         0         0         0         0         0
         0         0         0         0         0         0         0         0
         0         0         0         0         0         0         0         0
         0         0         0         0         0         0         0         0
         0         0         0         0         0         0         0         0
         0         0         0         0         0         0         0         0
         0         0         0         0         0         0         0         0
         0         0         0         0         0         0         0         0
         0         0         0         0         0         0         0         0
         0         0         0         0         0         0         0         0
         0         0         0         0         0         0         0         0
         0         0         0         0         0         0         0         0
         0         0         0         0         0         0         0         0
         0         0         0         0         0         0         0         0
         0         0         0         0         0         0         0         0
         0         0         0         0         0         0         0         0
         0         0         0         0         0         0         0         0
         0         0         0         0         0         0         0         0
         0         0         0         0         0         0         0         0
         0         0         0         0         0         0         0         0
         0         0         0         0         0         0         0         0
         0         0         0         0         0         0         0         0
         0         0         0         0         0         0         0         0
         0         0         0         0         0         0         0         0
         0         0         0         0         0         0         0         0
         0         0         0         0         0         0         0         0
         0         0         0         0         0         0         0         0
         0         0         0         0         0         0         0         0
         0         0         0         0         0         0         0         0
         0         0         0         0         0         0         0         0
         0         0         0         0         0         0         0         0
         0         0         0         0         0         0         0         0
         0         0         0         0         0         0         0         0
         0         0         0         0         0         0         0         0
         0         0         0         0         0         0         0         0
         0         0         0         0         0         0         0         0
         0         0         0         0         0         0         0         0
         0         0         0         0         0         0         0         0
         0         0         0         0         0         0         0         0
         0         0         0         0         0         0         0         0
         0         0         0         0         0         0         0         0
         0         0         0         0         0         0         0         0
         0         0         0         0         0         0         0         0
         0         0         0         0         0         0         0         0
         0         0         0         0         0         0         0         0
         0         0         0         0         0         0         0         0
         0         0         0         0         0         0         0         0
         0         0         0         0         0         0         0         0
         0         0         0         0         0         0         0         0
         0         0         0         0         0         0         0         0
         0         0         0         0         0         0         0         0
         0         0         0         0         0         0         0         0
         0         0         0         0         0         0         0         0
         0         0         0         0         0         0         0         0
         0         0         0         0         0         0         0         0
         0         0         0         0         0         0         0         0
         0         0         0         0         0         0         0         0
         0         0         0         0         0         0         0         0
         0         0         0         0         0         0         0         0
         0         0         0         0         0         0         0         0
         0         0         0         0         0         0         0         0
         0         0         0         0         0         0         0         0
         0         0         0         0         0         0         0         0
         0         0         0         0         0         0         0         0
         0         0         0         0         0         0         0         0
         0         0         0         0         0         0         0         0
         0         0         0         0         0         0         0         0
         0         0         0         0         0         0         0         0
         0         0         0         0         0         0         0         0
         0         0         0         0         0         0         0         0
         0         0         0         0         0         0         0         0
         0         0         0         0         0         0         0         0
         0         0         0         0         0         0         0         0
         0         0         0         0         0         0         0         0
         0         0         0         0         0         0         0         0
         0         0         0         0         0         0         0         0
         0         0         0         0         0         0         0         0
         0         0         0         0         0         0         0         0
         0         0         0         0         0         0         0         0
         0         0         0         0         0         0         0         0
         0         0         0         0         0         0         0         0
         0         0         0         0         0         0         0         0
         0         0         0         0         0         0         0         0
         0         0         0         0         0         0         0         0
         0         0         0         0         0         0         0         0
         0         0         0         0         0         0         0         0
         0         0         0         0         0         0         0         0
         0         0         0         0         0         0         0         0
         0         0         0         0         0         0         0         0
         0         0         0         0         0         0         0         0
         0         0         0         0         0         0         0         0
         0         0         0         0         0         0         0         0
         0         0         0         0         0         0         0         0
         0         0         0         0         0         0         0         0
         0         0         0         0         0         0         0         0
         0         0         0         0         0         0         0         0
         0         0         0         0         0         0         0         0
         0         0         0         0         0         0         0         0
         0         0         0         0         0         0         0         0
         0         0         0         0         0         0         0         0
         0         0         0         0         0         0         0         0
         0         0         0         0         0         0         0         0
         0         0         0         0         0         0         0         0
         0         0         0         0         0         0         0         0
         0         0         0         0         0         0         0         0
         0         0         0         0         0         0         0         0
         0         0         0         0         0         0         0         0
         0         0         0         0         0         0         0         0
         0         0         0         0         0         0         0         0
         0         0         0         0         0         0         0         0
         0         0         0         0         0         0         0         0
         0         0         0         0         0         0         0         0
         0         0         0         0         0         0         0         0
         0         0         0         0         0         0         0         0
         0         0         0         0         0         0         0         0
         0         0         0         0         0         0         0         0
         0         0         0         0         0         0         0         0
         0         0         0         0         0         0         0         0
         0         0         0         0         0         0         0         0
         0         0         0         0         0         0         0         0
         0         0         0         0         0         0         0         0
         0         0         0         0         0         0         0         0
         0         0         0         0         0         0         0         0
         0         0         0         0         0         0         0         0
         0         0         0         0         0         0         0         0
         0         0         0         0         0         0         0         0
         0         0         0         0         0         0         0         0
         0         0         0         0         0         0         0         0
         0         0         0         0         0         0         0         0
         0         0         0         0         0         0         0         0
         0         0         0         0         0         0         0         0
         0         0         0         0         0         0         0         0
         0         0         0         0         0         0         0         0
         0         0         0         0         0         0         0         0
         0         0         0         0         0         0         0         0
         0         0         0         0         0         0         0         0
         0         0         0         0         0         0         0         0
         0         0         0         0         0         0         0         0
         0         0         0         0         0         0         0         0
         0         0         0         0         0         0         0         0
         0         0         0         0         0         0         0         0
         0         0         0         0         0         0         0         0
         0         0         0         0         0         0         0         0
         0         0         0         0         0         0         0         0
         0         0         0         0         0         0         0         0
         0         0         0         0         0         0         0         0
         0         0         0         0         0         0         0         0
         0         0         0         0         0         0         0         0
         0         0         0         0         0         0         0         0
         0         0         0         0         0         0         0         0
         0         0         0         0         0         0         0         0
         0         0         0         0         0         0         0         0
         0         0         0         0         0         0         0         0
         0         0         0         0         0         0         0         0
         0         0         0         0         0         0         0         0
         0         0         0         0         0         0         0         0
         0         0         0         0         0         0         0         0
         0         0         0         0         0         0         0         0
         0         0         0         0         0         0         0         0
         0         0         0         0         0         0         0         0
         0         0         0         0         0         0         0         0
         0         0         0         0         0         0         0         0
         0         0         0         0         0         0         0         0
         0         0         0         0         0         0         0         0
         0         0         0         0         0         0         0         0
         0         0         0         0         0         0         0         0
         0         0         0         0         0         0         0         0
         0         0         0         0         0         0         0         0
         0         0         0         0         0         0         0         0
         0         0         0         0         0         0         0         0
         0         0         0         0         0         0         0         0
         0         0         0         0         0         0         0         0
         0         0         0         0         0         0         0         0
         0         0         0         0         0         0         0         0
         0         0         0         0         0         0         0         0
         0         0         0         0         0         0         0         0
         0         0         0         0         0         0         0         0
         0         0         0         0         0         0         0         0
         0         0         0         0         0         0         0         0
         0         0         0         0         0         0         0         0
         0         0         0         0         0         0         0         0
         0         0         0         0         0         0         0         0
         0         0         0         0         0         0         0         0
         0         0         0         0         0         0         0         0
         0         0         0         0         0         0         0         0
         0         0         0         0         0         0         0         0
         0         0         0         0         0         0         0         0
         0         0         0         0         0         0         0         0
         0         0         0         0         0         0         0         0
         0         0         0         0         0         0         0         0
         0         0         0         0         0         0         0         0
         0         0         0         0         0         0         0         0
         0         0         0         0         0         0         0         0
         0         0         0         0         0         0         0         0
         0         0         0         0         0         0         0         0
         0         0         0         0         0         0         0         0
         0         0         0         0         0         0         0         0
         0         0         0         0         0         0         0         0
         0         0         0         0         0         0         0         0
         0         0         0         0         0         0         0         0
         0         0

      6614         0 !NGRP NST2
         0         2         0         6         2         0         9         2         0
        20         1         0        28         1         0        37         1         0
        40         1         0        43         1         0        45         1         0
        47         1         0        50         1         0        52         1         0
        54         1         0        57         1         0        59         1         0
        61         1         0        64         1         0        66         1         0
        68         1         0        71         1         0        74         1         0
        77         1         0        80         1         0        84         1         0
        87         1         0        90         1         0        93         1         0
        96         1         0        99         1         0       102         1         0
       105         1         0       108         1         0       111         1         0
       114         1         0       117         1         0       120         1         0
       123         1         0       126         1         0       129         1         0
       133         1         0       137         1         0       140         1         0
       143         1         0       146         1         0       148         1         0
       150         1         0       153         1         0       156         1         0
       158         0         0       159         1         0       163         1         0
       166         1         0       169         1         0       171         0         0
       172         1         0       176         1         0       179         1         0
       182         1         0       184         1         0       188         1         0
       191         1         0       194         1         0       197         1         0
       199         1         0       203         1         0       207         2         0
       214         2         0       225         1         0       233         1         0
       242         1         0       245         1         0       248         1         0
       251         1         0       254         1         0       257         1         0
       260         1         0       262         1         0       264         1         0
       267         1         0       270         1         0       273         1         0
       276         1         0       279         1         0       282         1         0
       285         1         0       289         1         0       292         1         0
       295         1         0       298         1         0       301         1         0
       304         1         0       307         1         0       310         1         0
       313         1         0       316         1         0       319         1         0
       322         1         0       325         1         0       328         1         0
       331         1         0       334         1         0       338         1         0
       342         1         0       345         1         0       348         1         0
       351         1         0       353         1         0       355         1         0
       358         1         0       361         1         0       363         0         0
       364         1         0       368         1         0       371         1         0
       374         1         0       376         0         0       377         1         0
       381         1         0       384         1         0       387         1         0
       389         1         0       393         1         0       396         1         0
       399         1         0       402         1         0       404         1         0
       408         1         0       412         2         0       428         2         0
       439         1         0       447         1         0       456         1         0
       459         1         0       462         1         0       464         1         0
       466         1         0       469         1         0       471         1         0
       473         1         0       476         1         0       478         1         0
       480         1         0       483         1         0       485         1         0
       487         1         0       490         1         0       493         2         0
       496         1         0       499         2         0       503         1         0
       506         1         0       509         1         0       512         1         0
       515         1         0       518         1         0       521         1         0
       524         1         0       527         1         0       530         1         0
       533         1         0       536         1         0       539         1         0
       542         1         0       545         1         0       548         1         0
       552         2         0       568         2         0       579         1         0
       583         1         0       587         1         0       589         1         0
       591         1         0       594         1         0       597         1         0
       600         1         0       603         1         0       606         1         0
       609         1         0       612         1         0       615         1         0
       618         1         0       621         1         0       624         1         0
       627         1         0       631         1         0       636         1         0
       639         1         0       642         1         0       645         1         0
       648         1         0       651         1         0       654         1         0
       656         1         0       658         1         0       661         1         0
       664         1         0       667         1         0       670         1         0
       673         1         0       676         1         0       679         1         0
       683         1         0       687         1         0       690         1         0
       693         1         0       696         1         0       698         1         0
       700         1         0       703         1         0       706         1         0
       708         0         0       709         1         0       713         1         0
       716         1         0       719         1         0       721         0         0
       722         1         0       726         1         0       729         1         0
       732         1         0       734         1         0       738         1         0
       741         1         0       744         1         0       747         1         0
       749         1         0       753         1         0       757         1         0
       761         1         0       764         1         0       767         1         0
       770         1         0       772         1         0       774         1         0
       777         1         0       780         1         0       782         0         0
       783         1         0       787         1         0       790         1         0
       793         1         0       795         0         0       796         1         0
       800         1         0       803         1         0       806         1         0
       808         1         0       812         1         0       815         1         0
       818         1         0       821         1         0       823         1         0
       827         1         0       831         2         0       847         2         0
       858         1         0       862         1         0       866         1         0
       868         1         0       870         1         0       873         1         0
       876         1         0       879         1         0       882         1         0
       885         1         0       888         1         0       891         1         0
       894         1         0       897         1         0       900         1         0
       903         1         0       906         1         0       910         1         0
       915         1         0       918         1         0       921         1         0
       924         1         0       927         1         0       930         1         0
       933         1         0       935         1         0       937         1         0
       940         1         0       943         1         0       946         1         0
       949         1         0       952         1         0       955         1         0
       958         1         0       962         2         0       969         2         0
       980         1         0       988         1         0       997         1         0
      1000         1         0      1003         1         0      1006         1         0
      1009         1         0      1012         1         0      1015         1         0
      1017         1         0      1019         1         0      1022         1         0
      1025         1         0      1028         1         0      1031         1         0
      1034         1         0      1037         1         0      1040         1         0
      1044         1         0      1047         1         0      1050         1         0
      1053         1         0      1056         1         0      1059         1         0
      1062         1         0      1065         1         0      1068         1         0
      1071         1         0      1074         1         0      1077         1         0
      1080         1         0      1083         1         0      1086         1         0
      1089         1         0      1093         2         0      1109         2         0
      1120         1         0      1124         1         0      1128         1         0
      1130         1         0      1132         1         0      1135         1         0
      1138         1         0      1141         1         0      1144         1         0
      1147         1         0      1150         1         0      1153         1         0
      1156         1         0      1159         1         0      1162         1         0
      1165         1         0      1168         1         0      1172         1         0
      1177         1         0      1180         1         0      1183         1         0
      1186         1         0      1189         1         0      1192         1         0
      1195         1         0      1197         1         0      1199         1         0
      1202         1         0      1205         1         0      1208         1         0
      1211         1         0      1214         1         0      1217         1         0
      1220         1         0      1224         1         0      1228         1         0
      1231         1         0      1234         1         0      1237         1         0
      1239         1         0      1241         1         0      1244         1         0
      1247         1         0      1249         0         0      1250         1         0
      1254         1         0      1257         1         0      1260         1         0
      1262         0         0      1263         1         0      1267         1         0
      1270         1         0      1273         1         0      1275         1         0
      1279         1         0      1282         1         0      1285         1         0
      1288         1         0      1290         1         0      1294         1         0
      1298         1         0      1302         1         0      1305         1         0
      1308         1         0      1311         1         0      1313         1         0
      1315         1         0      1318         1         0      1321         1         0
      1323         0         0      1324         1         0      1328         1         0
      1331         1         0      1334         1         0      1336         0         0
      1337         1         0      1341         1         0      1344         1         0
      1347         1         0      1349         1         0      1353         1         0
      1356         1         0      1359         1         0      1362         1         0
      1364         1         0      1368         1         0      1372         1         0
      1376         1         0      1379         1         0      1382         1         0
      1385         1         0      1387         1         0      1389         1         0
      1392         1         0      1395         1         0      1397         0         0
      1398         1         0      1402         1         0      1405         1         0
      1408         1         0      1410         0         0      1411         1         0
      1415         1         0      1418         1         0      1421         1         0
      1423         1         0      1427         1         0      1430         1         0
      1433         1         0      1436         1         0      1438         1         0
      1442         1         0      1446         2         0      1462         2         0
      1473         1         0      1477         1         0      1481         1         0
      1483         1         0      1485         1         0      1488         1         0
      1491         1         0      1494         1         0      1497         1         0
      1500         1         0      1503         1         0      1506         1         0
      1509         1         0      1512         1         0      1515         1         0
      1518         1         0      1521         1         0      1525         1         0
      1530         1         0      1533         1         0      1536         1         0
      1539         1         0      1542         1         0      1545         1         0
      1548         1         0      1550         1         0      1552         1         0
      1555         1         0      1558         1         0      1561         1         0
      1564         1         0      1567         1         0      1570         1         0
      1573         1         0      1577         1         0      1581         1         0
      1584         1         0      1587         1         0      1590         1         0
      1592         1         0      1594         1         0      1597         1         0
      1600         1         0      1602         0         0      1603         1         0
      1607         1         0      1610         1         0      1613         1         0
      1615         0         0      1616         1         0      1620         1         0
      1623         1         0      1626         1         0      1628         1         0
      1632         1         0      1635         1         0      1638         1         0
      1641         1         0      1643         1         0      1647         1         0
      1651         2         0      1667         2         0      1678         1         0
      1682         1         0      1686         1         0      1688         1         0
      1690         1         0      1693         1         0      1696         1         0
      1699         1         0      1702         1         0      1705         1         0
      1708         1         0      1711         1         0      1714         1         0
      1717         1         0      1720         1         0      1723         1         0
      1726         1         0      1730         1         0      1735         1         0
      1738         1         0      1741         1         0      1744         1         0
      1747         1         0      1750         1         0      1753         1         0
      1755         1         0      1757         1         0      1760         1         0
      1763         1         0      1766         1         0      1769         1         0
      1772         1         0      1775         1         0      1778         1         0
      1782         2         0      1789         2         0      1800         1         0
      1808         1         0      1817         1         0      1820         1         0
      1823         1         0      1826         1         0      1829         1         0
      1832         1         0      1835         1         0      1837         1         0
      1839         1         0      1842         1         0      1845         1         0
      1848         1         0      1851         1         0      1854         1         0
      1857         1         0      1860         1         0      1864         1         0
      1867         1         0      1870         1         0      1873         1         0
      1876         1         0      1879         1         0      1882         1         0
      1885         1         0      1888         1         0      1891         1         0
      1894         1         0      1897         1         0      1900         1         0
      1903         1         0      1906         1         0      1909         1         0
      1913         1         0      1917         1         0      1920         1         0
      1923         1         0      1926         1         0      1928         1         0
      1930         1         0      1933         1         0      1936         1         0
      1938         0         0      1939         1         0      1943         1         0
      1946         1         0      1949         1         0      1951         0         0
      1952         1         0      1956         1         0      1959         1         0
      1962         1         0      1964         1         0      1968         1         0
      1971         1         0      1974         1         0      1977         1         0
      1979         1         0      1983         1         0      1987         2         0
      1994         2         0      2005         1         0      2013         1         0
      2022         1         0      2025         1         0      2028         1         0
      2030         1         0      2032         1         0      2035         1         0
      2037         1         0      2039         1         0      2042         1         0
      2044         1         0      2046         1         0      2049         1         0
      2051         1         0      2053         1         0      2056         1         0
      2059         1         0      2062         1         0      2065         1         0
      2069         1         0      2072         1         0      2075         1         0
      2078         1         0      2081         1         0      2084         1         0
      2087         1         0      2090         1         0      2093         1         0
      2096         1         0      2099         1         0      2102         1         0
      2105         1         0      2108         1         0      2111         1         0
      2114         1         0      2118         1         0      2122         1         0
      2125         1         0      2128         1         0      2131         1         0
      2133         1         0      2135         1         0      2138         1         0
      2141         1         0      2143         0         0      2144         1         0
      2148         1         0      2151         1         0      2154         1         0
      2156         0         0      2157         1         0      2161         1         0
      2164         1         0      2167         1         0      2169         1         0
      2173         1         0      2176         1         0      2179         1         0
      2182         1         0      2184         1         0      2188         1         0
      2192         2         0      2199         2         0      2210         1         0
      2218         1         0      2227         1         0      2230         1         0
      2233         1         0      2236         1         0      2239         1         0
      2242         1         0      2245         1         0      2247         1         0
      2249         1         0      2252         1         0      2255         1         0
      2258         1         0      2261         1         0      2264         1         0
      2267         1         0      2270         1         0      2274         1         0
      2277         1         0      2280         1         0      2283         1         0
      2286         1         0      2289         1         0      2292         1         0
      2295         1         0      2298         1         0      2301         1         0
      2304         1         0      2307         1         0      2310         1         0
      2313         1         0      2316         1         0      2319         1         0
      2323         2         0      2330         2         0      2341         1         0
      2349         1         0      2358         1         0      2361         1         0
      2364         1         0      2366         1         0      2368         1         0
      2371         1         0      2373         1         0      2375         1         0
      2378         1         0      2380         1         0      2382         1         0
      2385         1         0      2387         1         0      2389         1         0
      2392         1         0      2395         1         0      2398         1         0
      2401         1         0      2405         1         0      2408         1         0
      2411         1         0      2414         1         0      2417         1         0
      2420         1         0      2423         1         0      2426         1         0
      2429         1         0      2432         1         0      2435         1         0
      2438         1         0      2441         1         0      2444         1         0
      2447         1         0      2450         1         0      2454         2         0
      2460         2         0      2463         2         0      2474         1         0
      2482         1         0      2491         1         0      2494         1         0
      2497         1         0      2499         1         0      2501         1         0
      2504         1         0      2506         1         0      2508         1         0
      2511         1         0      2513         1         0      2515         1         0
      2518         1         0      2520         1         0      2522         1         0
      2525         1         0      2528         1         0      2531         1         0
      2534         1         0      2538         1         0      2541         1         0
      2544         1         0      2547         1         0      2550         1         0
      2553         1         0      2556         1         0      2559         1         0
      2562         1         0      2565         1         0      2568         1         0
      2571         1         0      2574         1         0      2577         1         0
      2580         1         0      2583         1         0      2587         2         0
      2593         2         0      2596         2         0      2607         1         0
      2615         1         0      2624         1         0      2627         1         0
      2630         1         0      2632         1         0      2634         1         0
      2637         1         0      2639         1         0      2641         1         0
      2644         1         0      2646         1         0      2648         1         0
      2651         1         0      2653         1         0      2655         1         0
      2658         1         0      2661         1         0      2664         1         0
      2667         1         0      2671         1         0      2674         1         0
      2677         1         0      2680         1         0      2683         1         0
      2686         1         0      2689         1         0      2692         1         0
      2695         1         0      2698         1         0      2701         1         0
      2704         1         0      2707         1         0      2710         1         0
      2713         1         0      2716         1         0      2720         2         0
      2726         2         0      2729         2         0      2740         1         0
      2748         1         0      2757         1         0      2760         1         0
      2763         1         0      2765         1         0      2767         1         0
      2770         1         0      2772         1         0      2774         1         0
      2777         1         0      2779         1         0      2781         1         0
      2784         1         0      2786         1         0      2788         1         0
      2791         1         0      2794         1         0      2797         1         0
      2800         1         0      2804         1         0      2807         1         0
      2810         1         0      2813         1         0      2816         1         0
      2819         1         0      2822         1         0      2825         1         0
      2828         1         0      2831         1         0      2834         1         0
      2837         1         0      2840         1         0      2843         1         0
      2846         1         0      2849         1         0      2853         2         0
      2860         2         0      2871         1         0      2879         1         0
      2888         1         0      2891         1         0      2894         1         0
      2896         1         0      2898         1         0      2901         1         0
      2903         1         0      2905         1         0      2908         1         0
      2910         1         0      2912         1         0      2915         1         0
      2917         1         0      2919         1         0      2922         1         0
      2925         1         0      2928         1         0      2931         1         0
      2935         1         0      2938         1         0      2941         1         0
      2944         1         0      2947         1         0      2950         1         0
      2953         1         0      2956         1         0      2959         1         0
      2962         1         0      2965         1         0      2968         1         0
      2971         1         0      2974         1         0      2977         1         0
      2980         1         0      2984         2         0      2991         2         0
      3002         1         0      3010         1         0      3019         1         0
      3022         1         0      3025         1         0      3027         1         0
      3029         1         0      3032         1         0      3034         1         0
      3036         1         0      3039         1         0      3041         1         0
      3043         1         0      3046         1         0      3048         1         0
      3050         1         0      3053         1         0      3056         1         0
      3059         1         0      3062         1         0      3066         1         0
      3069         1         0      3072         1         0      3075         1         0
      3078         1         0      3081         1         0      3084         1         0
      3087         1         0      3090         1         0      3093         1         0
      3096         1         0      3099         1         0      3102         1         0
      3105         1         0      3108         1         0      3111         1         0
      3115         2         0      3122         2         0      3133         1         0
      3141         1         0      3150         1         0      3153         1         0
      3156         1         0      3158         1         0      3160         1         0
      3163         1         0      3165         1         0      3167         1         0
      3170         1         0      3172         1         0      3174         1         0
      3177         1         0      3179         1         0      3181         1         0
      3184         1         0      3187         1         0      3190         1         0
      3193         1         0      3197         1         0      3200         1         0
      3203         1         0      3206         1         0      3209         1         0
      3212         1         0      3215         1         0      3218         1         0
      3221         1         0      3224         1         0      3227         1         0
      3230         1         0      3233         1         0      3236         1         0
      3239         1         0      3242         1         0      3246         1         0
      3250         1         0      3253         1         0      3256         1         0
      3259         1         0      3261         1         0      3263         1         0
      3266         1         0      3269         1         0      3271         0         0
      3272         1         0      3276         1         0      3279         1         0
      3282         1         0      3284         0         0      3285         1         0
      3289         1         0      3292         1         0      3295         1         0
      3297         1         0      3301         1         0      3304         1         0
      3307         1         0      3310         1         0      3312         1         0
      3316         1         0      3320         2         0      3327         2         0
      3338         1         0      3346         1         0      3355         1         0
      3358         1         0      3361         1         0      3363         1         0
      3365         1         0      3368         1         0      3370         1         0
      3372         1         0      3375         1         0      3377         1         0
      3379         1         0      3382         1         0      3384         1         0
      3386         1         0      3389         1         0      3392         1         0
      3395         1         0      3398         1         0      3402         1         0
      3405         1         0      3408         1         0      3411         1         0
      3414         1         0      3417         1         0      3420         1         0
      3423         1         0      3426         1         0      3429         1         0
      3432         1         0      3435         1         0      3438         1         0
      3441         1         0      3444         1         0      3447         1         0
      3451         2         0      3467         2         0      3478         1         0
      3486         1         0      3495         1         0      3498         1         0
      3501         1         0      3504         1         0      3507         1         0
      3510         1         0      3513         1         0      3515         1         0
      3517         1         0      3520         1         0      3522         1         0
      3524         1         0      3527         1         0      3530         1         0
      3533         1         0      3536         1         0      3540         1         0
      3543         1         0      3546         1         0      3549         1         0
      3552         1         0      3555         1         0      3558         1         0
      3561         1         0      3564         1         0      3567         1         0
      3570         1         0      3573         1         0      3576         1         0
      3579         1         0      3582         1         0      3585         1         0
      3589         1         0      3593         1         0      3596         1         0
      3599         1         0      3602         1         0      3604         1         0
      3606         1         0      3609         1         0      3612         1         0
      3614         0         0      3615         1         0      3619         1         0
      3622         1         0      3625         1         0      3627         0         0
      3628         1         0      3632         1         0      3635         1         0
      3638         1         0      3640         1         0      3644         1         0
      3647         1         0      3650         1         0      3653         1         0
      3655         1         0      3659         1         0      3663         2         0
      3670         2         0      3681         1         0      3689         1         0
      3698         1         0      3701         1         0      3704         1         0
      3706         1         0      3708         1         0      3711         1         0
      3713         1         0      3715         1         0      3718         1         0
      3720         1         0      3722         1         0      3725         1         0
      3727         1         0      3729         1         0      3732         1         0
      3735         1         0      3738         1         0      3741         1         0
      3745         1         0      3748         1         0      3751         1         0
      3754         1         0      3757         1         0      3760         1         0
      3763         1         0      3766         1         0      3769         1         0
      3772         1         0      3775         1         0      3778         1         0
      3781         1         0      3784         1         0      3787         1         0
      3790         1         0      3794         1         0      3798         1         0
      3801         1         0      3804         1         0      3807         1         0
      3809         1         0      3811         1         0      3814         1         0
      3817         1         0      3819         0         0      3820         1         0
      3824         1         0      3827         1         0      3830         1         0
      3832         0         0      3833         1         0      3837         1         0
      3840         1         0      3843         1         0      3845         1         0
      3849         1         0      3852         1         0      3855         1         0
      3858         1         0      3860         1         0      3864         1         0
      3868         1         0      3872         1         0      3875         1         0
      3878         1         0      3881         1         0      3883         1         0
      3885         1         0      3888         1         0      3891         1         0
      3893         0         0      3894         1         0      3898         1         0
      3901         1         0      3904         1         0      3906         0         0
      3907         1         0      3911         1         0      3914         1         0
      3917         1         0      3919         1         0      3923         1         0
      3926         1         0      3929         1         0      3932         1         0
      3934         1         0      3938         1         0      3942         2         0
      3948         2         0      3951         2         0      3962         1         0
      3970         1         0      3979         1         0      3982         1         0
      3985         1         0      3987         1         0      3989         1         0
      3992         1         0      3994         1         0      3996         1         0
      3999         1         0      4001         1         0      4003         1         0
      4006         1         0      4008         1         0      4010         1         0
      4013         1         0      4016         1         0      4019         1         0
      4022         1         0      4026         1         0      4029         1         0
      4032         1         0      4035         1         0      4038         1         0
      4041         1         0      4044         1         0      4047         1         0
      4050         1         0      4053         1         0      4056         1         0
      4059         1         0      4062         1         0      4065         1         0
      4068         1         0      4071         1         0      4075         2         0
      4082         2         0      4093         1         0      4101         1         0
      4110         1         0      4113         1         0      4116         1         0
      4118         1         0      4120         1         0      4123         1         0
      4125         1         0      4127         1         0      4130         1         0
      4132         1         0      4134         1         0      4137         1         0
      4139         1         0      4141         1         0      4144         1         0
      4147         1         0      4150         1         0      4153         1         0
      4157         1         0      4160         1         0      4163         1         0
      4166         1         0      4169         1         0      4172         1         0
      4175         1         0      4178         1         0      4181         1         0
      4184         1         0      4187         1         0      4190         1         0
      4193         1         0      4196         1         0      4199         1         0
      4202         1         0      4206         2         0      4222         2         0
      4233         1         0      4241         1         0      4250         1         0
      4253         1         0      4256         1         0      4259         1         0
      4262         1         0      4265         1         0      4268         1         0
      4270         1         0      4272         1         0      4275         1         0
      4278         1         0      4281         1         0      4284         1         0
      4287         1         0      4290         1         0      4293         1         0
      4297         1         0      4300         1         0      4303         1         0
      4306         1         0      4309         1         0      4312         1         0
      4315         1         0      4318         1         0      4321         1         0
      4324         1         0      4327         1         0      4330         1         0
      4333         1         0      4336         1         0      4340         1         0
      4344         1         0      4347         1         0      4350         1         0
      4353         1         0      4355         1         0      4357         1         0
      4360         1         0      4363         1         0      4365         0         0
      4366         1         0      4370         1         0      4373         1         0
      4376         1         0      4378         0         0      4379         1         0
      4383         1         0      4386         1         0      4389         1         0
      4391         1         0      4395         1         0      4398         1         0
      4401         1         0      4404         1         0      4406         1         0
      4410         1         0      4414         2         0      4430         2         0
      4441         1         0      4445         1         0      4449         1         0
      4451         1         0      4453         1         0      4456         1         0
      4459         1         0      4462         1         0      4465         1         0
      4468         1         0      4471         1         0      4474         1         0
      4477         1         0      4480         1         0      4483         1         0
      4486         1         0      4489         1         0      4493         1         0
      4498         1         0      4501         1         0      4504         1         0
      4507         1         0      4510         1         0      4513         1         0
      4516         1         0      4518         1         0      4520         1         0
      4523         1         0      4526         1         0      4529         1         0
      4532         1         0      4535         1         0      4538         1         0
      4541         1         0      4545         2         0      4561         2         0
      4572         1         0      4576         1         0      4580         1         0
      4582         1         0      4584         1         0      4587         1         0
      4590         1         0      4593         1         0      4596         1         0
      4599         1         0      4602         1         0      4605         1         0
      4608         1         0      4611         1         0      4614         1         0
      4617         1         0      4620         1         0      4624         1         0
      4629         1         0      4632         1         0      4635         1         0
      4638         1         0      4641         1         0      4644         1         0
      4647         1         0      4649         1         0      4651         1         0
      4654         1         0      4657         1         0      4660         1         0
      4663         1         0      4666         1         0      4669         1         0
      4672         1         0      4676         2         0      4682         2         0
      4685         2         0      4696         1         0      4704         1         0
      4713         1         0      4716         1         0      4719         1         0
      4721         1         0      4723         1         0      4726         1         0
      4728         1         0      4730         1         0      4733         1         0
      4735         1         0      4737         1         0      4740         1         0
      4742         1         0      4744         1         0      4747         1         0
      4750         1         0      4753         1         0      4756         1         0
      4760         1         0      4763         1         0      4766         1         0
      4769         1         0      4772         1         0      4775         1         0
      4778         1         0      4781         1         0      4784         1         0
      4787         1         0      4790         1         0      4793         1         0
      4796         1         0      4799         1         0      4802         1         0
      4805         1         0      4809         2         0      4825         2         0
      4836         1         0      4840         1         0      4844         1         0
      4846         1         0      4848         1         0      4851         1         0
      4854         1         0      4857         1         0      4860         1         0
      4863         1         0      4866         1         0      4869         1         0
      4872         1         0      4875         1         0      4878         1         0
      4881         1         0      4884         1         0      4888         1         0
      4893         1         0      4896         1         0      4899         1         0
      4902         1         0      4905         1         0      4908         1         0
      4911         1         0      4913         1         0      4915         1         0
      4918         1         0      4921         1         0      4924         1         0
      4927         1         0      4930         1         0      4933         1         0
      4936         1         0      4940         2         0      4956         2         0
      4967         1         0      4975         1         0      4984         1         0
      4987         1         0      4990         1         0      4993         1         0
      4996         1         0      4999         1         0      5002         1         0
      5004         1         0      5006         1         0      5009         1         0
      5011         1         0      5013         1         0      5016         1         0
      5019         1         0      5022         1         0      5025         1         0
      5029         1         0      5032         1         0      5035         1         0
      5038         1         0      5041         1         0      5044         1         0
      5047         1         0      5050         1         0      5053         1         0
      5056         1         0      5059         1         0      5062         1         0
      5065         1         0      5068         1         0      5071         1         0
      5074         1         0      5078         2         0      5094         2         0
      5105         1         0      5109         1         0      5113         1         0
      5115         1         0      5117         1         0      5120         1         0
      5123         1         0      5126         1         0      5129         1         0
      5132         1         0      5135         1         0      5138         1         0
      5141         1         0      5144         1         0      5147         1         0
      5150         1         0      5153         1         0      5157         1         0
      5162         1         0      5165         1         0      5168         1         0
      5171         1         0      5174         1         0      5177         1         0
      5180         1         0      5182         1         0      5184         1         0
      5187         1         0      5190         1         0      5193         1         0
      5196         1         0      5199         1         0      5202         1         0
      5205         1         0      5209         2         0      5225         2         0
      5236         1         0      5240         1         0      5244         1         0
      5246         1         0      5248         1         0      5251         1         0
      5254         1         0      5257         1         0      5260         1         0
      5263         1         0      5266         1         0      5269         1         0
      5272         1         0      5275         1         0      5278         1         0
      5281         1         0      5284         1         0      5288         1         0
      5293         1         0      5296         1         0      5299         1         0
      5302         1         0      5305         1         0      5308         1         0
      5311         1         0      5313         1         0      5315         1         0
      5318         1         0      5321         1         0      5324         1         0
      5327         1         0      5330         1         0      5333         1         0
      5336         1         0      5340         1         0      5344         1         0
      5347         1         0      5350         1         0      5353         1         0
      5355         1         0      5357         1         0      5360         1         0
      5363         1         0      5365         0         0      5366         1         0
      5370         1         0      5373         1         0      5376         1         0
      5378         0         0      5379         1         0      5383         1         0
      5386         1         0      5389         1         0      5391         1         0
      5395         1         0      5398         1         0      5401         1         0
      5404         1         0      5406         1         0      5410         1         0
      5414         2         0      5421         2         0      5432         1         0
      5440         1         0      5449         1         0      5452         1         0
      5455         1         0      5458         1         0      5461         1         0
      5464         1         0      5467         1         0      5469         1         0
      5471         1         0      5474         1         0      5477         1         0
      5480         1         0      5483         1         0      5486         1         0
      5489         1         0      5492         1         0      5496         1         0
      5499         1         0      5502         1         0      5505         1         0
      5508         1         0      5511         1         0      5514         1         0
      5517         1         0      5520         1         0      5523         1         0
      5526         1         0      5529         1         0      5532         1         0
      5535         1         0      5538         1         0      5541         1         0
      5545         1         0      5549         1         0      5552         1         0
      5555         1         0      5558         1         0      5560         1         0
      5562         1         0      5565         1         0      5568         1         0
      5570         0         0      5571         1         0      5575         1         0
      5578         1         0      5581         1         0      5583         0         0
      5584         1         0      5588         1         0      5591         1         0
      5594         1         0      5596         1         0      5600         1         0
      5603         1         0      5606         1         0      5609         1         0
      5611         1         0      5615         1         0      5619         2         0
      5626         2         0      5637         1         0      5645         1         0
      5654         1         0      5657         1         0      5660         1         0
      5662         1         0      5664         1         0      5667         1         0
      5669         1         0      5671         1         0      5674         1         0
      5676         1         0      5678         1         0      5681         1         0
      5683         1         0      5685         1         0      5688         1         0
      5691         1         0      5694         1         0      5697         1         0
      5701         1         0      5704         1         0      5707         1         0
      5710         1         0      5713         1         0      5716         1         0
      5719         1         0      5722         1         0      5725         1         0
      5728         1         0      5731         1         0      5734         1         0
      5737         1         0      5740         1         0      5743         1         0
      5746         1         0      5750         1         0      5754         1         0
      5757         1         0      5760         1         0      5763         1         0
      5765         1         0      5767         1         0      5770         1         0
      5773         1         0      5775         0         0      5776         1         0
      5780         1         0      5783         1         0      5786         1         0
      5788         0         0      5789         1         0      5793         1         0
      5796         1         0      5799         1         0      5801         1         0
      5805         1         0      5808         1         0      5811         1         0
      5814         1         0      5816         1         0      5820         1         0
      5824         2         0      5840         2         0      5851         1         0
      5855         1         0      5859         1         0      5861         1         0
      5863         1         0      5866         1         0      5869         1         0
      5872         1         0      5875         1         0      5878         1         0
      5881         1         0      5884         1         0      5887         1         0
      5890         1         0      5893         1         0      5896         1         0
      5899         1         0      5903         1         0      5908         1         0
      5911         1         0      5914         1         0      5917         1         0
      5920         1         0      5923         1         0      5926         1         0
      5928         1         0      5930         1         0      5933         1         0
      5936         1         0      5939         1         0      5942         1         0
      5945         1         0      5948         1         0      5951         1         0
      5955         2         0      5971         2         0      5982         1         0
      5986         1         0      5990         1         0      5992         1         0
      5994         1         0      5997         1         0      6000         1         0
      6003         1         0      6006         1         0      6009         1         0
      6012         1         0      6015         1         0      6018         1         0
      6021         1         0      6024         1         0      6027         1         0
      6030         1         0      6034         1         0      6039         1         0
      6042         1         0      6045         1         0      6048         1         0
      6051         1         0      6054         1         0      6057         1         0
      6059         1         0      6061         1         0      6064         1         0
      6067         1         0      6070         1         0      6073         1         0
      6076         1         0      6079         1         0      6082         1         0
      6086         2         0      6102         2         0      6113         1         0
      6117         1         0      6121         1         0      6123         1         0
      6125         1         0      6128         1         0      6131         1         0
      6134         1         0      6137         1         0      6140         1         0
      6143         1         0      6146         1         0      6149         1         0
      6152         1         0      6155         1         0      6158         1         0
      6161         1         0      6165         1         0      6170         1         0
      6173         1         0      6176         1         0      6179         1         0
      6182         1         0      6185         1         0      6188         1         0
      6190         1         0      6192         1         0      6195         1         0
      6198         1         0      6201         1         0      6204         1         0
      6207         1         0      6210         1         0      6213         1         0
      6217         2         0      6233         2         0      6244         1         0
      6248         1         0      6252         1         0      6254         1         0
      6256         1         0      6259         1         0      6262         1         0
      6265         1         0      6268         1         0      6271         1         0
      6274         1         0      6277         1         0      6280         1         0
      6283         1         0      6286         1         0      6289         1         0
      6292         1         0      6296         1         0      6301         1         0
      6304         1         0      6307         1         0      6310         1         0
      6313         1         0      6316         1         0      6319         1         0
      6321         1         0      6323         1         0      6326         1         0
      6329         1         0      6332         1         0      6335         1         0
      6338         1         0      6341         1         0      6344         1         0
      6348         2         0      6364         2         0      6375         1         0
      6383         1         0      6392         1         0      6395         1         0
      6398         1         0      6401         1         0      6404         1         0
      6407         1         0      6410         1         0      6412         1         0
      6414         1         0      6417         1         0      6419         1         0
      6421         1         0      6424         1         0      6427         1         0
      6430         1         0      6433         1         0      6437         1         0
      6440         1         0      6443         1         0      6446         1         0
      6449         1         0      6452         1         0      6455         1         0
      6458         1         0      6461         1         0      6464         1         0
      6467         1         0      6470         1         0      6473         1         0
      6476         1         0      6479         1         0      6482         1         0
      6486         2         0      6502         2         0      6513         1         0
      6521         1         0      6530         1         0      6533         1         0
      6536         1         0      6539         1         0      6542         1         0
      6545         1         0      6548         1         0      6550         1         0
      6552         1         0      6555         1         0      6557         1         0
      6559         1         0      6562         1         0      6565         1         0
      6568         1         0      6571         1         0      6575         1         0
      6578         1         0      6581         1         0      6584         1         0
      6587         1         0      6590         1         0      6593         1         0
      6596         1         0      6599         1         0      6602         1         0
      6605         1         0      6608         1         0      6611         1         0
      6614         1         0      6617         1         0      6620         1         0
      6624         1         0      6628         1         0      6631         1         0
      6634         1         0      6637         1         0      6639         1         0
      6641         1         0      6644         1         0      6647         1         0
      6649         0         0      6650         1         0      6654         1         0
      6657         1         0      6660         1         0      6662         0         0
      6663         1         0      6667         1         0      6670         1         0
      6673         1         0      6675         1         0      6679         1         0
      6682         1         0      6685         1         0      6688         1         0
      6690         1         0      6694         1         0      6698         1         0
      6702         1         0      6705         1         0      6708         1         0
      6711         1         0      6713         1         0      6715         1         0
      6718         1         0      6721         1         0      6723         0         0
      6724         1         0      6728         1         0      6731         1         0
      6734         1         0      6736         0         0      6737         1         0
      6741         1         0      6744         1         0      6747         1         0
      6749         1         0      6753         1         0      6756         1         0
      6759         1         0      6762         1         0      6764         1         0
      6768         1         0      6772         1         0      6776         1         0
      6779         1         0      6782         1         0      6785         1         0
      6787         1         0      6789         1         0      6792         1         0
      6795         1         0      6797         0         0      6798         1         0
      6802         1         0      6805         1         0      6808         1         0
      6810         0         0      6811         1         0      6815         1         0
      6818         1         0      6821         1         0      6823         1         0
      6827         1         0      6830         1         0      6833         1         0
      6836         1         0      6838         1         0      6842         1         0
      6846         1         0      6850         1         0      6853         1         0
      6856         1         0      6859         1         0      6861         1         0
      6863         1         0      6866         1         0      6869         1         0
      6871         0         0      6872         1         0      6876         1         0
      6879         1         0      6882         1         0      6884         0         0
      6885         1         0      6889         1         0      6892         1         0
      6895         1         0      6897         1         0      6901         1         0
      6904         1         0      6907         1         0      6910         1         0
      6912         1         0      6916         1         0      6920         1         0
      6924         1         0      6928         1         0      6932         1         0
      6936         1         0      6940         2         0      6950         1         0
      6958         1         0      6967         1         0      6970         1         0
      6973         1         0      6975         1         0      6977         1         0
      6980         1         0      6982         1         0      6984         1         0
      6987         1         0      6989         1         0      6991         1         0
      6994         1         0      6996         1         0      6998         1         0
      7001         1         0      7004         1         0      7007         1         0
      7010         1         0      7014         1         0      7017         1         0
      7020         1         0      7023         1         0      7026         1         0
      7029         1         0      7032         1         0      7035         1         0
      7038         1         0      7041         1         0      7044         1         0
      7047         1         0      7050         1         0      7053         1         0
      7056         1         0      7059         1         0      7063         1         0
      7067         1         0      7070         1         0      7073         1         0
      7076         1         0      7078         1         0      7080         1         0
      7083         1         0      7086         1         0      7088         0         0
      7089         1         0      7093         1         0      7096         1         0
      7099         1         0      7101         0         0      7102         1         0
      7106         1         0      7109         1         0      7112         1         0
      7114         1         0      7118         1         0      7121         1         0
      7124         1         0      7127         1         0      7129         1         0
      7133         1         0      7137         2         0      7153         2         0
      7164         1         0      7168         1         0      7172         1         0
      7174         1         0      7176         1         0      7179         1         0
      7182         1         0      7185         1         0      7188         1         0
      7191         1         0      7194         1         0      7197         1         0
      7200         1         0      7203         1         0      7206         1         0
      7209         1         0      7212         1         0      7216         1         0
      7221         1         0      7224         1         0      7227         1         0
      7230         1         0      7233         1         0      7236         1         0
      7239         1         0      7241         1         0      7243         1         0
      7246         1         0      7249         1         0      7252         1         0
      7255         1         0      7258         1         0      7261         1         0
      7264         1         0      7268         2         0      7274         2         0
      7277         2         0      7288         1         0      7296         1         0
      7305         1         0      7308         1         0      7311         1         0
      7313         1         0      7315         1         0      7318         1         0
      7320         1         0      7322         1         0      7325         1         0
      7327         1         0      7329         1         0      7332         1         0
      7334         1         0      7336         1         0      7339         1         0
      7342         1         0      7345         1         0      7348         1         0
      7352         1         0      7355         1         0      7358         1         0
      7361         1         0      7364         1         0      7367         1         0
      7370         1         0      7373         1         0      7376         1         0
      7379         1         0      7382         1         0      7385         1         0
      7388         1         0      7391         1         0      7394         1         0
      7397         1         0      7401         2         0      7408         2         0
      7419         1         0      7427         1         0      7436         1         0
      7439         1         0      7442         1         0      7444         1         0
      7446         1         0      7449         1         0      7451         1         0
      7453         1         0      7456         1         0      7458         1         0
      7460         1         0      7463         1         0      7465         1         0
      7467         1         0      7470         1         0      7473         1         0
      7476         1         0      7479         1         0      7483         1         0
      7486         1         0      7489         1         0      7492         1         0
      7495         1         0      7498         1         0      7501         1         0
      7504         1         0      7507         1         0      7510         1         0
      7513         1         0      7516         1         0      7519         1         0
      7522         1         0      7525         1         0      7528         1         0
      7532         2         0      7548         2         0      7559         1         0
      7567         1         0      7576         1         0      7579         1         0
      7582         1         0      7585         1         0      7588         1         0
      7591         1         0      7594         1         0      7596         1         0
      7598         1         0      7601         1         0      7604         1         0
      7607         1         0      7610         1         0      7613         1         0
      7616         1         0      7619         1         0      7623         1         0
      7626         1         0      7629         1         0      7632         1         0
      7635         1         0      7638         1         0      7641         1         0
      7644         1         0      7647         1         0      7650         1         0
      7653         1         0      7656         1         0      7659         1         0
      7662         1         0      7666         2         0      7682         2         0
      7693         1         0      7697         1         0      7701         1         0
      7703         1         0      7705         1         0      7708         1         0
      7711         1         0      7714         1         0      7717         1         0
      7720         1         0      7723         1         0      7726         1         0
      7729         1         0      7732         1         0      7735         1         0
      7738         1         0      7741         1         0      7745         1         0
      7750         1         0      7753         1         0      7756         1         0
      7759         1         0      7762         1         0      7765         1         0
      7768         1         0      7770         1         0      7772         1         0
      7775         1         0      7778         1         0      7781         1         0
      7784         1         0      7787         1         0      7790         1         0
      7793         1         0      7797         2         0      7813         2         0
      7824         1         0      7828         1         0      7832         1         0
      7834         1         0      7836         1         0      7839         1         0
      7842         1         0      7845         1         0      7848         1         0
      7851         1         0      7854         1         0      7857         1         0
      7860         1         0      7863         1         0      7866         1         0
      7869         1         0      7872         1         0      7876         1         0
      7881         1         0      7884         1         0      7887         1         0
      7890         1         0      7893         1         0      7896         1         0
      7899         1         0      7901         1         0      7903         1         0
      7906         1         0      7909         1         0      7912         1         0
      7915         1         0      7918         1         0      7921         1         0
      7924         1         0      7928         2         0      7944         2         0
      7955         1         0      7959         1         0      7963         1         0
      7965         1         0      7967         1         0      7970         1         0
      7973         1         0      7976         1         0      7979         1         0
      7982         1         0      7985         1         0      7988         1         0
      7991         1         0      7994         1         0      7997         1         0
      8000         1         0      8003         1         0      8007         1         0
      8012         1         0      8015         1         0      8018         1         0
      8021         1         0      8024         1         0      8027         1         0
      8030         1         0      8032         1         0      8034         1         0
      8037         1         0      8040         1         0      8043         1         0
      8046         1         0      8049         1         0      8052         1         0
      8055         1         0      8059         2         0      8075         2         0
      8086         1         0      8094         1         0      8103         1         0
      8106         1         0      8109         1         0      8111         1         0
      8113         1         0      8116         1         0      8118         1         0
      8120         1         0      8123         1         0      8125         1         0
      8127         1         0      8130         1         0      8132         1         0
      8134         1         0      8137         1         0      8140         2         0
      8143         1         0      8146         2         0      8150         1         0
      8153         1         0      8156         1         0      8159         1         0
      8162         1         0      8165         1         0      8168         1         0
      8171         1         0      8174         1         0      8177         1         0
      8180         1         0      8183         1         0      8186         1         0
      8189         1         0      8192         1         0      8195         1         0
      8199         2         0      8215         2         0      8226         1         0
      8230         1         0      8234         1         0      8236         1         0
      8238         1         0      8241         1         0      8244         1         0
      8247         1         0      8250         1         0      8253         1         0
      8256         1         0      8259         1         0      8262         1         0
      8265         1         0      8268         1         0      8271         1         0
      8274         1         0      8278         1         0      8283         1         0
      8286         1         0      8289         1         0      8292         1         0
      8295         1         0      8298         1         0      8301         1         0
      8303         1         0      8305         1         0      8308         1         0
      8311         1         0      8314         1         0      8317         1         0
      8320         1         0      8323         1         0      8326         1         0
      8330         2         0      8346         2         0      8357         1         0
      8361         1         0      8365         1         0      8367         1         0
      8369         1         0      8372         1         0      8375         1         0
      8378         1         0      8381         1         0      8384         1         0
      8387         1         0      8390         1         0      8393         1         0
      8396         1         0      8399         1         0      8402         1         0
      8405         1         0      8409         1         0      8414         1         0
      8417         1         0      8420         1         0      8423         1         0
      8426         1         0      8429         1         0      8432         1         0
      8434         1         0      8436         1         0      8439         1         0
      8442         1         0      8445         1         0      8448         1         0
      8451         1         0      8454         1         0      8457         1         0
      8461         2         0      8467         2         0      8470         2         0
      8481         1         0      8489         1         0      8498         1         0
      8501         1         0      8504         1         0      8506         1         0
      8508         1         0      8511         1         0      8513         1         0
      8515         1         0      8518         1         0      8520         1         0
      8522         1         0      8525         1         0      8527         1         0
      8529         1         0      8532         1         0      8535         1         0
      8538         1         0      8541         1         0      8545         1         0
      8548         1         0      8551         1         0      8554         1         0
      8557         1         0      8560         1         0      8563         1         0
      8566         1         0      8569         1         0      8572         1         0
      8575         1         0      8578         1         0      8581         1         0
      8584         1         0      8587         1         0      8590         1         0
      8594         1         0      8598         1         0      8601         1         0
      8604         1         0      8607         1         0      8609         1         0
      8611         1         0      8614         1         0      8617         1         0
      8619         0         0      8620         1         0      8624         1         0
      8627         1         0      8630         1         0      8632         0         0
      8633         1         0      8637         1         0      8640         1         0
      8643         1         0      8645         1         0      8649         1         0
      8652         1         0      8655         1         0      8658         1         0
      8660         1         0      8664         1         0      8668         2         0
      8684         2         0      8695         1         0      8703         1         0
      8712         1         0      8715         1         0      8718         1         0
      8721         1         0      8724         1         0      8727         1         0
      8730         1         0      8732         1         0      8734         1         0
      8737         1         0      8739         1         0      8741         1         0
      8744         1         0      8747         1         0      8750         1         0
      8753         1         0      8757         1         0      8760         1         0
      8763         1         0      8766         1         0      8769         1         0
      8772         1         0      8775         1         0      8778         1         0
      8781         1         0      8784         1         0      8787         1         0
      8790         1         0      8793         1         0      8796         1         0
      8799         1         0      8802         1         0      8806         1         0
      8810         1         0      8814         1         0      8818         1         0
      8822         1         0      8826         2         0      8836         1         0
      8844         1         0      8853         1         0      8856         1         0
      8859         1         0      8861         1         0      8863         1         0
      8866         1         0      8868         1         0      8870         1         0
      8873         1         0      8875         1         0      8877         1         0
      8880         1         0      8882         1         0      8884         1         0
      8887         1         0      8890         1         0      8893         1         0
      8896         1         0      8900         1         0      8903         1         0
      8906         1         0      8909         1         0      8912         1         0
      8915         1         0      8918         1         0      8921         1         0
      8924         1         0      8927         1         0      8930         1         0
      8933         1         0      8936         1         0      8939         1         0
      8942         1         0      8945         1         0      8949         2         0
      8965         2         0      8976         1         0      8980         1         0
      8984         1         0      8986         1         0      8988         1         0
      8991         1         0      8994         1         0      8997         1         0
      9000         1         0      9003         1         0      9006         1         0
      9009         1         0      9012         1         0      9015         1         0
      9018         1         0      9021         1         0      9024         1         0
      9028         1         0      9033         1         0      9036         1         0
      9039         1         0      9042         1         0      9045         1         0
      9048         1         0      9051         1         0      9053         1         0
      9055         1         0      9058         1         0      9061         1         0
      9064         1         0      9067         1         0      9070         1         0
      9073         1         0      9076         1         0      9080         2         0
      9087         2         0      9098         1         0      9106         1         0
      9115         1         0      9118         1         0      9121         1         0
      9123         1         0      9125         1         0      9128         1         0
      9130         1         0      9132         1         0      9135         1         0
      9137         1         0      9139         1         0      9142         1         0
      9144         1         0      9146         1         0      9149         1         0
      9152         1         0      9155         1         0      9158         1         0
      9162         1         0      9165         1         0      9168         1         0
      9171         1         0      9174         1         0      9177         1         0
      9180         1         0      9183         1         0      9186         1         0
      9189         1         0      9192         1         0      9195         1         0
      9198         1         0      9201         1         0      9204         1         0
      9207         1         0      9211         1         0      9215         1         0
      9218         1         0      9221         1         0      9224         1         0
      9226         1         0      9228         1         0      9231         1         0
      9234         1         0      9236         0         0      9237         1         0
      9241         1         0      9244         1         0      9247         1         0
      9249         0         0      9250         1         0      9254         1         0
      9257         1         0      9260         1         0      9262         1         0
      9266         1         0      9269         1         0      9272         1         0
      9275         1         0      9277         1         0      9281         1         0
      9285         2         0      9292         2         0      9303         1         0
      9311         1         0      9320         1         0      9323         1         0
      9326         1         0      9328         1         0      9330         1         0
      9333         1         0      9335         1         0      9337         1         0
      9340         1         0      9342         1         0      9344         1         0
      9347         1         0      9349         1         0      9351         1         0
      9354         1         0      9357         1         0      9360         1         0
      9363         1         0      9367         1         0      9370         1         0
      9373         1         0      9376         1         0      9379         1         0
      9382         1         0      9385         1         0      9388         1         0
      9391         1         0      9394         1         0      9397         1         0
      9400         1         0      9403         1         0      9406         1         0
      9409         1         0      9412         1         0      9416         2         0
      9432         2         0      9443         1         0      9451         1         0
      9460         1         0      9463         1         0      9466         1         0
      9469         1         0      9472         1         0      9475         1         0
      9478         1         0      9480         1         0      9482         1         0
      9485         1         0      9487         1         0      9489         1         0
      9492         1         0      9495         1         0      9498         1         0
      9501         1         0      9505         1         0      9508         1         0
      9511         1         0      9514         1         0      9517         1         0
      9520         1         0      9523         1         0      9526         1         0
      9529         1         0      9532         1         0      9535         1         0
      9538         1         0      9541         1         0      9544         1         0
      9547         1         0      9550         1         0      9554         2         0
      9570         2         0      9581         1         0      9589         1         0
      9598         1         0      9601         1         0      9604         1         0
      9606         1         0      9608         1         0      9611         1         0
      9613         1         0      9615         1         0      9618         1         0
      9620         1         0      9622         1         0      9625         1         0
      9627         1         0      9629         1         0      9632         1         0
      9635         2         0      9638         1         0      9641         2         0
      9645         1         0      9648         1         0      9651         1         0
      9654         1         0      9657         1         0      9660         1         0
      9663         1         0      9666         1         0      9669         1         0
      9672         1         0      9675         1         0      9678         1         0
      9681         1         0      9684         1         0      9687         1         0
      9690         1         0      9694         2         0      9701         2         0
      9712         1         0      9720         1         0      9729         1         0
      9732         1         0      9735         1         0      9737         1         0
      9739         1         0      9742         1         0      9744         1         0
      9746         1         0      9749         1         0      9751         1         0
      9753         1         0      9756         1         0      9758         1         0
      9760         1         0      9763         1         0      9766         1         0
      9769         1         0      9772         1         0      9776         1         0
      9779         1         0      9782         1         0      9785         1         0
      9788         1         0      9791         1         0      9794         1         0
      9797         1         0      9800         1         0      9803         1         0
      9806         1         0      9809         1         0      9812         1         0
      9815         1         0      9818         1         0      9821         1         0
      9825         1         0      9829         1         0      9832         1         0
      9835         1         0      9838         1         0      9840         1         0
      9842         1         0      9845         1         0      9848         1         0
      9850         0         0      9851         1         0      9855         1         0
      9858         1         0      9861         1         0      9863         0         0
      9864         1         0      9868         1         0      9871         1         0
      9874         1         0      9876         1         0      9880         1         0
      9883         1         0      9886         1         0      9889         1         0
      9891         1         0      9895         1         0      9899         2         0
      9905         2         0      9908         2         0      9919         1         0
      9927         1         0      9936         1         0      9939         1         0
      9942         1         0      9944         1         0      9946         1         0
      9949         1         0      9951         1         0      9953         1         0
      9956         1         0      9958         1         0      9960         1         0
      9963         1         0      9965         1         0      9967         1         0
      9970         1         0      9973         1         0      9976         1         0
      9979         1         0      9983         1         0      9986         1         0
      9989         1         0      9992         1         0      9995         1         0
      9998         1         0     10001         1         0     10004         1         0
     10007         1         0     10010         1         0     10013         1         0
     10016         1         0     10019         1         0     10022         1         0
     10025         1         0     10028         1         0     10032         1         0
     10036         1         0     10039         1         0     10042         1         0
     10045         1         0     10047         1         0     10049         1         0
     10052         1         0     10055         1         0     10057         0         0
     10058         1         0     10062         1         0     10065         1         0
     10068         1         0     10070         0         0     10071         1         0
     10075         1         0     10078         1         0     10081         1         0
     10083         1         0     10087         1         0     10090         1         0
     10093         1         0     10096         1         0     10098         1         0
     10102         1         0     10106         2         0     10122         2         0
     10133         1         0     10137         1         0     10141         1         0
     10143         1         0     10145         1         0     10148         1         0
     10151         1         0     10154         1         0     10157         1         0
     10160         1         0     10163         1         0     10166         1         0
     10169         1         0     10172         1         0     10175         1         0
     10178         1         0     10181         1         0     10185         1         0
     10190         1         0     10193         1         0     10196         1         0
     10199         1         0     10202         1         0     10205         1         0
     10208         1         0     10210         1         0     10212         1         0
     10215         1         0     10218         1         0     10221         1         0
     10224         1         0     10227         1         0     10230         1         0
     10233         1         0     10237         2         0     10244         2         0
     10255         1         0     10263         1         0     10272         1         0
     10275         1         0     10278         1         0     10280         1         0
     10282         1         0     10285         1         0     10287         1         0
     10289         1         0     10292         1         0     10294         1         0
     10296         1         0     10299         1         0     10301         1         0
     10303         1         0     10306         1         0     10309         1         0
     10312         1         0     10315         1         0     10319         1         0
     10322         1         0     10325         1         0     10328         1         0
     10331         1         0     10334         1         0     10337         1         0
     10340         1         0     10343         1         0     10346         1         0
     10349         1         0     10352         1         0     10355         1         0
     10358         1         0     10361         1         0     10364         1         0
     10368         2         0     10375         2         0     10386         1         0
     10394         1         0     10403         1         0     10406         1         0
     10409         1         0     10412         1         0     10415         1         0
     10418         1         0     10421         1         0     10423         1         0
     10425         1         0     10428         1         0     10431         1         0
     10434         1         0     10437         1         0     10440         1         0
     10443         1         0     10446         1         0     10450         1         0
     10453         1         0     10456         1         0     10459         1         0
     10462         1         0     10465         1         0     10468         1         0
     10471         1         0     10474         1         0     10477         1         0
     10480         1         0     10483         1         0     10486         1         0
     10489         1         0     10492         1         0     10495         1         0
     10499         2         0     10515         2         0     10526         1         0
     10534         1         0     10543         1         0     10546         1         0
     10549         1         0     10551         1         0     10553         1         0
     10556         1         0     10558         1         0     10560         1         0
     10563         1         0     10565         1         0     10567         1         0
     10570         1         0     10572         1         0     10574         1         0
     10577         1         0     10580         2         0     10583         1         0
     10586         2         0     10590         1         0     10593         1         0
     10596         1         0     10599         1         0     10602         1         0
     10605         1         0     10608         1         0     10611         1         0
     10614         1         0     10617         1         0     10620         1         0
     10623         1         0     10626         1         0     10629         1         0
     10632         1         0     10635         1         0     10639         1         0
     10643         1         0     10646         1         0     10649         1         0
     10652         1         0     10654         1         0     10656         1         0
     10659         1         0     10662         1         0     10664         0         0
     10665         1         0     10669         1         0     10672         1         0
     10675         1         0     10677         0         0     10678         1         0
     10682         1         0     10685         1         0     10688         1         0
     10690         1         0     10694         1         0     10697         1         0
     10700         1         0     10703         1         0     10705         1         0
     10709         1         0     10713         2         0     10729         2         0
     10740         1         0     10748         1         0     10757         1         0
     10760         1         0     10763         1         0     10765         1         0
     10767         1         0     10770         1         0     10772         1         0
     10774         1         0     10777         1         0     10779         1         0
     10781         1         0     10784         1         0     10786         1         0
     10788         1         0     10791         1         0     10794         2         0
     10797         1         0     10800         2         0     10804         1         0
     10807         1         0     10810         1         0     10813         1         0
     10816         1         0     10819         1         0     10822         1         0
     10825         1         0     10828         1         0     10831         1         0
     10834         1         0     10837         1         0     10840         1         0
     10843         1         0     10846         1         0     10849         1         0
     10853         2         0     10869         2         0     10880         1         0
     10888         1         0     10897         1         0     10900         1         0
     10903         1         0     10905         1         0     10907         1         0
     10910         1         0     10912         1         0     10914         1         0
     10917         1         0     10919         1         0     10921         1         0
     10924         1         0     10926         1         0     10928         1         0
     10931         1         0     10934         2         0     10937         1         0
     10940         2         0     10944         1         0     10947         1         0
     10950         1         0     10953         1         0     10956         1         0
     10959         1         0     10962         1         0     10965         1         0
     10968         1         0     10971         1         0     10974         1         0
     10977         1         0     10980         1         0     10983         1         0
     10986         1         0     10989         1         0     10993         2         0
     10999         2         0     11002         2         0     11013         1         0
     11021         1         0     11030         1         0     11033         1         0
     11036         1         0     11038         1         0     11040         1         0
     11043         1         0     11045         1         0     11047         1         0
     11050         1         0     11052         1         0     11054         1         0
     11057         1         0     11059         1         0     11061         1         0
     11064         1         0     11067         1         0     11070         1         0
     11073         1         0     11077         1         0     11080         1         0
     11083         1         0     11086         1         0     11089         1         0
     11092         1         0     11095         1         0     11098         1         0
     11101         1         0     11104         1         0     11107         1         0
     11110         1         0     11113         1         0     11116         1         0
     11119         1         0     11122         1         0     11126         1         0
     11130         1         0     11133         1         0     11136         1         0
     11139         1         0     11141         1         0     11143         1         0
     11146         1         0     11149         1         0     11151         0         0
     11152         1         0     11156         1         0     11159         1         0
     11162         1         0     11164         0         0     11165         1         0
     11169         1         0     11172         1         0     11175         1         0
     11177         1         0     11181         1         0     11184         1         0
     11187         1         0     11190         1         0     11192         1         0
     11196         1         0     11200         2         0     11216         2         0
     11227         1         0     11231         1         0     11235         1         0
     11237         1         0     11239         1         0     11242         1         0
     11245         1         0     11248         1         0     11251         1         0
     11254         1         0     11257         1         0     11260         1         0
     11263         1         0     11266         1         0     11269         1         0
     11272         1         0     11275         1         0     11279         1         0
     11284         1         0     11287         1         0     11290         1         0
     11293         1         0     11296         1         0     11299         1         0
     11302         1         0     11304         1         0     11306         1         0
     11309         1         0     11312         1         0     11315         1         0
     11318         1         0     11321         1         0     11324         1         0
     11327         1         0     11331         2         0     11337         2         0
     11340         2         0     11351         1         0     11359         1         0
     11368         1         0     11371         1         0     11374         1         0
     11376         1         0     11378         1         0     11381         1         0
     11383         1         0     11385         1         0     11388         1         0
     11390         1         0     11392         1         0     11395         1         0
     11397         1         0     11399         1         0     11402         1         0
     11405         1         0     11408         1         0     11411         1         0
     11415         1         0     11418         1         0     11421         1         0
     11424         1         0     11427         1         0     11430         1         0
     11433         1         0     11436         1         0     11439         1         0
     11442         1         0     11445         1         0     11448         1         0
     11451         1         0     11454         1         0     11457         1         0
     11460         1         0     11464         2         0     11471         2         0
     11482         1         0     11490         1         0     11499         1         0
     11502         1         0     11505         1         0     11508         1         0
     11511         1         0     11514         1         0     11517         1         0
     11519         1         0     11521         1         0     11524         1         0
     11527         1         0     11530         1         0     11533         1         0
     11536         1         0     11539         1         0     11542         1         0
     11546         1         0     11549         1         0     11552         1         0
     11555         1         0     11558         1         0     11561         1         0
     11564         1         0     11567         1         0     11570         1         0
     11573         1         0     11576         1         0     11579         1         0
     11582         1         0     11585         1         0     11588         1         0
     11591         1         0     11595         1         0     11599         1         0
     11602         1         0     11605         1         0     11608         1         0
     11610         1         0     11612         1         0     11615         1         0
     11618         1         0     11620         0         0     11621         1         0
     11625         1         0     11628         1         0     11631         1         0
     11633         0         0     11634         1         0     11638         1         0
     11641         1         0     11644         1         0     11646         1         0
     11650         1         0     11653         1         0     11656         1         0
     11659         1         0     11661         1         0     11665         1         0
     11669         1         0     11673         1         0     11676         1         0
     11679         1         0     11682         1         0     11684         1         0
     11686         1         0     11689         1         0     11692         1         0
     11694         0         0     11695         1         0     11699         1         0
     11702         1         0     11705         1         0     11707         0         0
     11708         1         0     11712         1         0     11715         1         0
     11718         1         0     11720         1         0     11724         1         0
     11727         1         0     11730         1         0     11733         1         0
     11735         1         0     11739         1         0     11743         1         0
     11747         1         0     11751         1         0     11755         1         0
     11759         1         0     11763         2         0     11773         1         0
     11781         1         0     11790         1         0     11793         1         0
     11796         1         0     11798         1         0     11800         1         0
     11803         1         0     11805         1         0     11807         1         0
     11810         1         0     11812         1         0     11814         1         0
     11817         1         0     11819         1         0     11821         1         0
     11824         1         0     11827         1         0     11830         1         0
     11833         1         0     11837         1         0     11840         1         0
     11843         1         0     11846         1         0     11849         1         0
     11852         1         0     11855         1         0     11858         1         0
     11861         1         0     11864         1         0     11867         1         0
     11870         1         0     11873         1         0     11876         1         0
     11879         1         0     11882         1         0     11886         2         0
     11892         2         0     11895         2         0     11906         1         0
     11914         1         0     11923         1         0     11926         1         0
     11929         1         0     11931         1         0     11933         1         0
     11936         1         0     11938         1         0     11940         1         0
     11943         1         0     11945         1         0     11947         1         0
     11950         1         0     11952         1         0     11954         1         0
     11957         1         0     11960         1         0     11963         1         0
     11966         1         0     11970         1         0     11973         1         0
     11976         1         0     11979         1         0     11982         1         0
     11985         1         0     11988         1         0     11991         1         0
     11994         1         0     11997         1         0     12000         1         0
     12003         1         0     12006         1         0     12009         1         0
     12012         1         0     12015         1         0     12019         2         0
     12035         2         0     12046         1         0     12050         1         0
     12054         1         0     12056         1         0     12058         1         0
     12061         1         0     12064         1         0     12067         1         0
     12070         1         0     12073         1         0     12076         1         0
     12079         1         0     12082         1         0     12085         1         0
     12088         1         0     12091         1         0     12094         1         0
     12098         1         0     12103         1         0     12106         1         0
     12109         1         0     12112         1         0     12115         1         0
     12118         1         0     12121         1         0     12123         1         0
     12125         1         0     12128         1         0     12131         1         0
     12134         1         0     12137         1         0     12140         1         0
     12143         1         0     12146         1         0     12150         2         0
     12157         2         0     12168         1         0     12176         1         0
     12185         1         0     12188         1         0     12191         1         0
     12194         1         0     12197         1         0     12200         1         0
     12203         1         0     12205         1         0     12207         1         0
     12210         1         0     12213         1         0     12216         1         0
     12219         1         0     12222         1         0     12225         1         0
     12228         1         0     12232         1         0     12235         1         0
     12238         1         0     12241         1         0     12244         1         0
     12247         1         0     12250         1         0     12253         1         0
     12256         1         0     12259         1         0     12262         1         0
     12265         1         0     12268         1         0     12271         1         0
     12274         1         0     12277         1         0     12281         2         0
     12297         2         0     12308         1         0     12312         1         0
     12316         1         0     12318         1         0     12320         1         0
     12323         1         0     12326         1         0     12329         1         0
     12332         1         0     12335         1         0     12338         1         0
     12341         1         0     12344         1         0     12347         1         0
     12350         1         0     12353         1         0     12356         1         0
     12360         1         0     12365         1         0     12368         1         0
     12371         1         0     12374         1         0     12377         1         0
     12380         1         0     12383         1         0     12385         1         0
     12387         1         0     12390         1         0     12393         1         0
     12396         1         0     12399         1         0     12402         1         0
     12405         1         0     12408         1         0     12412         2         0
     12428         2         0     12439         1         0     12447         1         0
     12456         1         0     12459         1         0     12462         1         0
     12465         1         0     12468         1         0     12471         1         0
     12474         1         0     12476         1         0     12478         1         0
     12481         1         0     12483         1         0     12485         1         0
     12488         1         0     12491         1         0     12494         1         0
     12497         1         0     12501         1         0     12504         1         0
     12507         1         0     12510         1         0     12513         1         0
     12516         1         0     12519         1         0     12522         1         0
     12525         1         0     12528         1         0     12531         1         0
     12534         1         0     12537         1         0     12540         1         0
     12543         1         0     12546         1         0     12550         2         0
     12566         2         0     12577         1         0     12585         1         0
     12594         1         0     12597         1         0     12600         1         0
     12602         1         0     12604         1         0     12607         1         0
     12609         1         0     12611         1         0     12614         1         0
     12616         1         0     12618         1         0     12621         1         0
     12623         1         0     12625         1         0     12628         1         0
     12631         2         0     12634         1         0     12637         2         0
     12641         1         0     12644         1         0     12647         1         0
     12650         1         0     12653         1         0     12656         1         0
     12659         1         0     12662         1         0     12665         1         0
     12668         1         0     12671         1         0     12674         1         0
     12677         1         0     12680         1         0     12683         1         0
     12686         1         0     12690         1         0     12694         1         0
     12697         1         0     12700         1         0     12703         1         0
     12705         1         0     12707         1         0     12710         1         0
     12713         1         0     12715         0         0     12716         1         0
     12720         1         0     12723         1         0     12726         1         0
     12728         0         0     12729         1         0     12733         1         0
     12736         1         0     12739         1         0     12741         1         0
     12745         1         0     12748         1         0     12751         1         0
     12754         1         0     12756         1         0     12760         1         0
     12764         1         0     12768         1         0     12771         1         0
     12774         1         0     12777         1         0     12779         1         0
     12781         1         0     12784         1         0     12787         1         0
     12789         0         0     12790         1         0     12794         1         0
     12797         1         0     12800         1         0     12802         0         0
     12803         1         0     12807         1         0     12810         1         0
     12813         1         0     12815         1         0     12819         1         0
     12822         1         0     12825         1         0     12828         1         0
     12830         1         0     12834         1         0     12838         2         0
     12845         2         0     12856         1         0     12864         1         0
     12873         1         0     12876         1         0     12879         1         0
     12881         1         0     12883         1         0     12886         1         0
     12888         1         0     12890         1         0     12893         1         0
     12895         1         0     12897         1         0     12900         1         0
     12902         1         0     12904         1         0     12907         1         0
     12910         1         0     12913         1         0     12916         1         0
     12920         1         0     12923         1         0     12926         1         0
     12929         1         0     12932         1         0     12935         1         0
     12938         1         0     12941         1         0     12944         1         0
     12947         1         0     12950         1         0     12953         1         0
     12956         1         0     12959         1         0     12962         1         0
     12965         1         0     12969         2         0     12985         2         0
     12996         1         0     13004         1         0     13013         1         0
     13016         1         0     13019         1         0     13021         1         0
     13023         1         0     13026         1         0     13028         1         0
     13030         1         0     13033         1         0     13035         1         0
     13037         1         0     13040         1         0     13042         1         0
     13044         1         0     13047         1         0     13050         2         0
     13053         1         0     13056         2         0     13060         1         0
     13063         1         0     13066         1         0     13069         1         0
     13072         1         0     13075         1         0     13078         1         0
     13081         1         0     13084         1         0     13087         1         0
     13090         1         0     13093         1         0     13096         1         0
     13099         1         0     13102         1         0     13105         1         0
     13109         2         0     13125         2         0     13136         1         0
     13144         1         0     13153         1         0     13156         1         0
     13159         1         0     13162         1         0     13165         1         0
     13168         1         0     13171         1         0     13173         1         0
     13175         1         0     13178         1         0     13180         1         0
     13182         1         0     13185         1         0     13188         1         0
     13191         1         0     13194         1         0     13198         1         0
     13201         1         0     13204         1         0     13207         1         0
     13210         1         0     13213         1         0     13216         1         0
     13219         1         0     13222         1         0     13225         1         0
     13228         1         0     13231         1         0     13234         1         0
     13237         1         0     13240         1         0     13243         1         0
     13247         2         0     13253         2         0     13256         2         0
     13267         1         0     13275         1         0     13284         1         0
     13287         1         0     13290         1         0     13292         1         0
     13294         1         0     13297         1         0     13299         1         0
     13301         1         0     13304         1         0     13306         1         0
     13308         1         0     13311         1         0     13313         1         0
     13315         1         0     13318         1         0     13321         1         0
     13324         1         0     13327         1         0     13331         1         0
     13334         1         0     13337         1         0     13340         1         0
     13343         1         0     13346         1         0     13349         1         0
     13352         1         0     13355         1         0     13358         1         0
     13361         1         0     13364         1         0     13367         1         0
     13370         1         0     13373         1         0     13376         1         0
     13380         2         0     13387         2         0     13398         1         0
     13406         1         0     13415         1         0     13418         1         0
     13421         1         0     13424         1         0     13427         1         0
     13430         1         0     13433         1         0     13435         1         0
     13437         1         0     13440         1         0     13443         1         0
     13446         1         0     13449         1         0     13452         1         0
     13455         1         0     13458         1         0     13462         1         0
     13465         1         0     13468         1         0     13471         1         0
     13474         1         0     13477         1         0     13480         1         0
     13483         1         0     13486         1         0     13489         1         0
     13492         1         0     13495         1         0     13498         1         0
     13501         1         0     13504         1         0     13507         1         0
     13511         2         0     13527         2         0     13538         1         0
     13542         1         0     13546         1         0     13548         1         0
     13550         1         0     13553         1         0     13556         1         0
     13559         1         0     13562         1         0     13565         1         0
     13568         1         0     13571         1         0     13574         1         0
     13577         1         0     13580         1         0     13583         1         0
     13586         1         0     13590         1         0     13595         1         0
     13598         1         0     13601         1         0     13604         1         0
     13607         1         0     13610         1         0     13613         1         0
     13615         1         0     13617         1         0     13620         1         0
     13623         1         0     13626         1         0     13629         1         0
     13632         1         0     13635         1         0     13638         1         0
     13642         2         0     13658         2         0     13669         1         0
     13673         1         0     13677         1         0     13679         1         0
     13681         1         0     13684         1         0     13687         1         0
     13690         1         0     13693         1         0     13696         1         0
     13699         1         0     13702         1         0     13705         1         0
     13708         1         0     13711         1         0     13714         1         0
     13717         1         0     13721         1         0     13726         1         0
     13729         1         0     13732         1         0     13735         1         0
     13738         1         0     13741         1         0     13744         1         0
     13746         1         0     13748         1         0     13751         1         0
     13754         1         0     13757         1         0     13760         1         0
     13763         1         0     13766         1         0     13769         1         0
     13773         2         0     13779         2         0     13782         2         0
     13793         1         0     13801         1         0     13810         1         0
     13813         1         0     13816         1         0     13818         1         0
     13820         1         0     13823         1         0     13825         1         0
     13827         1         0     13830         1         0     13832         1         0
     13834         1         0     13837         1         0     13839         1         0
     13841         1         0     13844         1         0     13847         1         0
     13850         1         0     13853         1         0     13857         1         0
     13860         1         0     13863         1         0     13866         1         0
     13869         1         0     13872         1         0     13875         1         0
     13878         1         0     13881         1         0     13884         1         0
     13887         1         0     13890         1         0     13893         1         0
     13896         1         0     13899         1         0     13902         1         0
     13906         1         0     13910         1         0     13913         1         0
     13916         1         0     13919         1         0     13921         1         0
     13923         1         0     13926         1         0     13929         1         0
     13931         0         0     13932         1         0     13936         1         0
     13939         1         0     13942         1         0     13944         0         0
     13945         1         0     13949         1         0     13952         1         0
     13955         1         0     13957         1         0     13961         1         0
     13964         1         0     13967         1         0     13970         1         0
     13972         1         0     13976         1         0     13980         2         0
     13996         2         0     14007         1         0     14011         1         0
     14015         1         0     14017         1         0     14019         1         0
     14022         1         0     14025         1         0     14028         1         0
     14031         1         0     14034         1         0     14037         1         0
     14040         1         0     14043         1         0     14046         1         0
     14049         1         0     14052         1         0     14055         1         0
     14059         1         0     14064         1         0     14067         1         0
     14070         1         0     14073         1         0     14076         1         0
     14079         1         0     14082         1         0     14084         1         0
     14086         1         0     14089         1         0     14092         1         0
     14095         1         0     14098         1         0     14101         1         0
     14104         1         0     14107         1         0     14111         2         0
     14127         2         0     14138         1         0     14142         1         0
     14146         1         0     14148         1         0     14150         1         0
     14153         1         0     14156         1         0     14159         1         0
     14162         1         0     14165         1         0     14168         1         0
     14171         1         0     14174         1         0     14177         1         0
     14180         1         0     14183         1         0     14186         1         0
     14190         1         0     14195         1         0     14198         1         0
     14201         1         0     14204         1         0     14207         1         0
     14210         1         0     14213         1         0     14215         1         0
     14217         1         0     14220         1         0     14223         1         0
     14226         1         0     14229         1         0     14232         1         0
     14235         1         0     14238         1         0     14242         2         0
     14249         2         0     14260         1         0     14268         1         0
     14277         1         0     14280         1         0     14283         1         0
     14285         1         0     14287         1         0     14290         1         0
     14292         1         0     14294         1         0     14297         1         0
     14299         1         0     14301         1         0     14304         1         0
     14306         1         0     14308         1         0     14311         1         0
     14314         1         0     14317         1         0     14320         1         0
     14324         1         0     14327         1         0     14330         1         0
     14333         1         0     14336         1         0     14339         1         0
     14342         1         0     14345         1         0     14348         1         0
     14351         1         0     14354         1         0     14357         1         0
     14360         1         0     14363         1         0     14366         1         0
     14369         1         0     14373         2         0     14389         2         0
     14400         1         0     14408         1         0     14417         1         0
     14420         1         0     14423         1         0     14425         1         0
     14427         1         0     14430         1         0     14432         1         0
     14434         1         0     14437         1         0     14439         1         0
     14441         1         0     14444         1         0     14446         1         0
     14448         1         0     14451         1         0     14454         2         0
     14457         1         0     14460         2         0     14464         1         0
     14467         1         0     14470         1         0     14473         1         0
     14476         1         0     14479         1         0     14482         1         0
     14485         1         0     14488         1         0     14491         1         0
     14494         1         0     14497         1         0     14500         1         0
     14503         1         0     14506         1         0     14509         1         0
     14513         2         0     14529         2         0     14540         1         0
     14544         1         0     14548         1         0     14550         1         0
     14552         1         0     14555         1         0     14558         1         0
     14561         1         0     14564         1         0     14567         1         0
     14570         1         0     14573         1         0     14576         1         0
     14579         1         0     14582         1         0     14585         1         0
     14588         1         0     14592         1         0     14597         1         0
     14600         1         0     14603         1         0     14606         1         0
     14609         1         0     14612         1         0     14615         1         0
     14617         1         0     14619         1         0     14622         1         0
     14625         1         0     14628         1         0     14631         1         0
     14634         1         0     14637         1         0     14640         1         0
     14644         1         0     14648         1         0     14651         1         0
     14654         1         0     14657         1         0     14659         1         0
     14661         1         0     14664         1         0     14667         1         0
     14669         0         0     14670         1         0     14674         1         0
     14677         1         0     14680         1         0     14682         0         0
     14683         1         0     14687         1         0     14690         1         0
     14693         1         0     14695         1         0     14699         1         0
     14702         1         0     14705         1         0     14708         1         0
     14710         1         0     14714         1         0     14718         2         0
     14724         2         0     14727         2         0     14738         1         0
     14746         1         0     14755         1         0     14758         1         0
     14761         1         0     14763         1         0     14765         1         0
     14768         1         0     14770         1         0     14772         1         0
     14775         1         0     14777         1         0     14779         1         0
     14782         1         0     14784         1         0     14786         1         0
     14789         1         0     14792         1         0     14795         1         0
     14798         1         0     14802         1         0     14805         1         0
     14808         1         0     14811         1         0     14814         1         0
     14817         1         0     14820         1         0     14823         1         0
     14826         1         0     14829         1         0     14832         1         0
     14835         1         0     14838         1         0     14841         1         0
     14844         1         0     14847         1         0     14851         1         0
     14855         1         0     14858         1         0     14861         1         0
     14864         1         0     14866         1         0     14868         1         0
     14871         1         0     14874         1         0     14876         0         0
     14877         1         0     14881         1         0     14884         1         0
     14887         1         0     14889         0         0     14890         1         0
     14894         1         0     14897         1         0     14900         1         0
     14902         1         0     14906         1         0     14909         1         0
     14912         1         0     14915         1         0     14917         1         0
     14921         1         0     14925         2         0     14931         2         0
     14934         2         0     14945         1         0     14953         1         0
     14962         1         0     14965         1         0     14968         1         0
     14970         1         0     14972         1         0     14975         1         0
     14977         1         0     14979         1         0     14982         1         0
     14984         1         0     14986         1         0     14989         1         0
     14991         1         0     14993         1         0     14996         1         0
     14999         1         0     15002         1         0     15005         1         0
     15009         1         0     15012         1         0     15015         1         0
     15018         1         0     15021         1         0     15024         1         0
     15027         1         0     15030         1         0     15033         1         0
     15036         1         0     15039         1         0     15042         1         0
     15045         1         0     15048         1         0     15051         1         0
     15054         1         0     15058         2         0     15074         2         0
     15085         1         0     15089         1         0     15093         1         0
     15095         1         0     15097         1         0     15100         1         0
     15103         1         0     15106         1         0     15109         1         0
     15112         1         0     15115         1         0     15118         1         0
     15121         1         0     15124         1         0     15127         1         0
     15130         1         0     15133         1         0     15137         1         0
     15142         1         0     15145         1         0     15148         1         0
     15151         1         0     15154         1         0     15157         1         0
     15160         1         0     15162         1         0     15164         1         0
     15167         1         0     15170         1         0     15173         1         0
     15176         1         0     15179         1         0     15182         1         0
     15185         1         0     15189         2         0     15196         2         0
     15207         1         0     15215         1         0     15224         1         0
     15227         1         0     15230         1         0     15232         1         0
     15234         1         0     15237         1         0     15239         1         0
     15241         1         0     15244         1         0     15246         1         0
     15248         1         0     15251         1         0     15253         1         0
     15255         1         0     15258         1         0     15261         1         0
     15264         1         0     15267         1         0     15271         1         0
     15274         1         0     15277         1         0     15280         1         0
     15283         1         0     15286         1         0     15289         1         0
     15292         1         0     15295         1         0     15298         1         0
     15301         1         0     15304         1         0     15307         1         0
     15310         1         0     15313         1         0     15316         1         0
     15320         1         0     15324         1         0     15327         1         0
     15330         1         0     15333         1         0     15335         1         0
     15337         1         0     15340         1         0     15343         1         0
     15345         0         0     15346         1         0     15350         1         0
     15353         1         0     15356         1         0     15358         0         0
     15359         1         0     15363         1         0     15366         1         0
     15369         1         0     15371         1         0     15375         1         0
     15378         1         0     15381         1         0     15384         1         0
     15386         1         0     15390         1         0     15394         2         0
     15410         2         0     15421         1         0     15425         1         0
     15429         1         0     15431         1         0     15433         1         0
     15436         1         0     15439         1         0     15442         1         0
     15445         1         0     15448         1         0     15451         1         0
     15454         1         0     15457         1         0     15460         1         0
     15463         1         0     15466         1         0     15469         1         0
     15473         1         0     15478         1         0     15481         1         0
     15484         1         0     15487         1         0     15490         1         0
     15493         1         0     15496         1         0     15498         1         0
     15500         1         0     15503         1         0     15506         1         0
     15509         1         0     15512         1         0     15515         1         0
     15518         1         0     15521         1         0     15525         2         0
     15541         2         0     15552         1         0     15556         1         0
     15560         1         0     15562         1         0     15564         1         0
     15567         1         0     15570         1         0     15573         1         0
     15576         1         0     15579         1         0     15582         1         0
     15585         1         0     15588         1         0     15591         1         0
     15594         1         0     15597         1         0     15600         1         0
     15604         1         0     15609         1         0     15612         1         0
     15615         1         0     15618         1         0     15621         1         0
     15624         1         0     15627         1         0     15629         1         0
     15631         1         0     15634         1         0     15637         1         0
     15640         1         0     15643         1         0     15646         1         0
     15649         1         0     15652         1         0     15656         2         0
     15672         2         0     15683         1         0     15691         1         0
     15700         1         0     15703         1         0     15706         1         0
     15709         1         0     15712         1         0     15715         1         0
     15718         1         0     15720         1         0     15722         1         0
     15725         1         0     15727         1         0     15729         1         0
     15732         1         0     15735         1         0     15738         1         0
     15741         1         0     15745         1         0     15748         1         0
     15751         1         0     15754         1         0     15757         1         0
     15760         1         0     15763         1         0     15766         1         0
     15769         1         0     15772         1         0     15775         1         0
     15778         1         0     15781         1         0     15784         1         0
     15787         1         0     15790         1         0     15794         2         0
     15810         2         0     15821         1         0     15825         1         0
     15829         1         0     15831         1         0     15833         1         0
     15836         1         0     15839         1         0     15842         1         0
     15845         1         0     15848         1         0     15851         1         0
     15854         1         0     15857         1         0     15860         1         0
     15863         1         0     15866         1         0     15869         1         0
     15873         1         0     15878         1         0     15881         1         0
     15884         1         0     15887         1         0     15890         1         0
     15893         1         0     15896         1         0     15898         1         0
     15900         1         0     15903         1         0     15906         1         0
     15909         1         0     15912         1         0     15915         1         0
     15918         1         0     15921         1         0     15925         2         0
     15941         2         0     15952         1         0     15956         1         0
     15960         1         0     15962         1         0     15964         1         0
     15967         1         0     15970         1         0     15973         1         0
     15976         1         0     15979         1         0     15982         1         0
     15985         1         0     15988         1         0     15991         1         0
     15994         1         0     15997         1         0     16000         1         0
     16004         1         0     16009         1         0     16012         1         0
     16015         1         0     16018         1         0     16021         1         0
     16024         1         0     16027         1         0     16029         1         0
     16031         1         0     16034         1         0     16037         1         0
     16040         1         0     16043         1         0     16046         1         0
     16049         1         0     16052         1         0     16056         2         0
     16062         2         0     16065         2         0     16076         1         0
     16084         1         0     16093         1         0     16096         1         0
     16099         1         0     16101         1         0     16103         1         0
     16106         1         0     16108         1         0     16110         1         0
     16113         1         0     16115         1         0     16117         1         0
     16120         1         0     16122         1         0     16124         1         0
     16127         1         0     16130         1         0     16133         1         0
     16136         1         0     16140         1         0     16143         1         0
     16146         1         0     16149         1         0     16152         1         0
     16155         1         0     16158         1         0     16161         1         0
     16164         1         0     16167         1         0     16170         1         0
     16173         1         0     16176         1         0     16179         1         0
     16182         1         0     16185         1         0     16189         1         0
     16193         1         0     16196         1         0     16199         1         0
     16202         1         0     16204         1         0     16206         1         0
     16209         1         0     16212         1         0     16214         0         0
     16215         1         0     16219         1         0     16222         1         0
     16225         1         0     16227         0         0     16228         1         0
     16232         1         0     16235         1         0     16238         1         0
     16240         1         0     16244         1         0     16247         1         0
     16250         1         0     16253         1         0     16255         1         0
     16259         1         0     16263         2         0     16279         2         0
     16290         1         0     16294         1         0     16298         1         0
     16300         1         0     16302         1         0     16305         1         0
     16308         1         0     16311         1         0     16314         1         0
     16317         1         0     16320         1         0     16323         1         0
     16326         1         0     16329         1         0     16332         1         0
     16335         1         0     16338         1         0     16342         1         0
     16347         1         0     16350         1         0     16353         1         0
     16356         1         0     16359         1         0     16362         1         0
     16365         1         0     16367         1         0     16369         1         0
     16372         1         0     16375         1         0     16378         1         0
     16381         1         0     16384         1         0     16387         1         0
     16390         1         0     16394         2         0     16401         2         0
     16412         1         0     16420         1         0     16429         1         0
     16432         1         0     16435         1         0     16437         1         0
     16439         1         0     16442         1         0     16444         1         0
     16446         1         0     16449         1         0     16451         1         0
     16453         1         0     16456         1         0     16458         1         0
     16460         1         0     16463         1         0     16466         1         0
     16469         1         0     16472         1         0     16476         1         0
     16479         1         0     16482         1         0     16485         1         0
     16488         1         0     16491         1         0     16494         1         0
     16497         1         0     16500         1         0     16503         1         0
     16506         1         0     16509         1         0     16512         1         0
     16515         1         0     16518         1         0     16521         1         0
     16525         2         0     16541         2         0     16552         1         0
     16560         1         0     16569         1         0     16572         1         0
     16575         1         0     16578         1         0     16581         1         0
     16584         1         0     16587         1         0     16589         1         0
     16591         1         0     16594         1         0     16596         1         0
     16598         1         0     16601         1         0     16604         1         0
     16607         1         0     16610         1         0     16614         1         0
     16617         1         0     16620         1         0     16623         1         0
     16626         1         0     16629         1         0     16632         1         0
     16635         1         0     16638         1         0     16641         1         0
     16644         1         0     16647         1         0     16650         1         0
     16653         1         0     16656         1         0     16659         1         0
     16663         2         0     16679         2         0     16690         1         0
     16694         1         0     16698         1         0     16700         1         0
     16702         1         0     16705         1         0     16708         1         0
     16711         1         0     16714         1         0     16717         1         0
     16720         1         0     16723         1         0     16726         1         0
     16729         1         0     16732         1         0     16735         1         0
     16738         1         0     16742         1         0     16747         1         0
     16750         1         0     16753         1         0     16756         1         0
     16759         1         0     16762         1         0     16765         1         0
     16767         1         0     16769         1         0     16772         1         0
     16775         1         0     16778         1         0     16781         1         0
     16784         1         0     16787         1         0     16790         1         0
     16794         1         0     16798         1         0     16801         1         0
     16804         1         0     16807         1         0     16809         1         0
     16811         1         0     16814         1         0     16817         1         0
     16819         0         0     16820         1         0     16824         1         0
     16827         1         0     16830         1         0     16832         0         0
     16833         1         0     16837         1         0     16840         1         0
     16843         1         0     16845         1         0     16849         1         0
     16852         1         0     16855         1         0     16858         1         0
     16860         1         0     16864         1         0     16868         1         0
     16872         1         0     16875         1         0     16878         1         0
     16881         1         0     16883         1         0     16885         1         0
     16888         1         0     16891         1         0     16893         0         0
     16894         1         0     16898         1         0     16901         1         0
     16904         1         0     16906         0         0     16907         1         0
     16911         1         0     16914         1         0     16917         1         0
     16919         1         0     16923         1         0     16926         1         0
     16929         1         0     16932         1         0     16934         1         0
     16938         1         0     16942         1         0     16946         1         0
     16949         1         0     16952         1         0     16955         1         0
     16957         1         0     16959         1         0     16962         1         0
     16965         1         0     16967         0         0     16968         1         0
     16972         1         0     16975         1         0     16978         1         0
     16980         0         0     16981         1         0     16985         1         0
     16988         1         0     16991         1         0     16993         1         0
     16997         1         0     17000         1         0     17003         1         0
     17006         1         0     17008         1         0     17012         1         0
     17016         1         0     17020         1         0     17023         1         0
     17026         1         0     17029         1         0     17031         1         0
     17033         1         0     17036         1         0     17039         1         0
     17041         0         0     17042         1         0     17046         1         0
     17049         1         0     17052         1         0     17054         0         0
     17055         1         0     17059         1         0     17062         1         0
     17065         1         0     17067         1         0     17071         1         0
     17074         1         0     17077         1         0     17080         1         0
     17082         1         0     17086         1         0     17090         2         0
     17097         2         0     17108         1         0     17116         1         0
     17125         1         0     17128         1         0     17131         1         0
     17133         1         0     17135         1         0     17138         1         0
     17140         1         0     17142         1         0     17145         1         0
     17147         1         0     17149         1         0     17152         1         0
     17154         1         0     17156         1         0     17159         1         0
     17162         1         0     17165         1         0     17168         1         0
     17172         1         0     17175         1         0     17178         1         0
     17181         1         0     17184         1         0     17187         1         0
     17190         1         0     17193         1         0     17196         1         0
     17199         1         0     17202         1         0     17205         1         0
     17208         1         0     17211         1         0     17214         1         0
     17217         1         0     17221         1         0     17225         1         0
     17228         1         0     17231         1         0     17234         1         0
     17236         1         0     17238         1         0     17241         1         0
     17244         1         0     17246         0         0     17247         1         0
     17251         1         0     17254         1         0     17257         1         0
     17259         0         0     17260         1         0     17264         1         0
     17267         1         0     17270         1         0     17272         1         0
     17276         1         0     17279         1         0     17282         1         0
     17285         1         0     17287         1         0     17291         1         0
     17295         2         0     17302         2         0     17313         1         0
     17321         1         0     17330         1         0     17333         1         0
     17336         1         0     17339         1         0     17342         1         0
     17345         1         0     17348         1         0     17350         1         0
     17352         1         0     17355         1         0     17358         1         0
     17361         1         0     17364         1         0     17367         1         0
     17370         1         0     17373         1         0     17377         1         0
     17380         1         0     17383         1         0     17386         1         0
     17389         1         0     17392         1         0     17395         1         0
     17398         1         0     17401         1         0     17404         1         0
     17407         1         0     17410         1         0     17413         1         0
     17416         1         0     17419         1         0     17422         1         0
     17426         2         0     17442         2         0     17453         1         0
     17461         1         0     17470         1         0     17473         1         0
     17476         1         0     17479         1         0     17482         1         0
     17485         1         0     17488         1         0     17490         1         0
     17492         1         0     17495         1         0     17498         1         0
     17501         1         0     17504         1         0     17507         1         0
     17510         1         0     17513         1         0     17517         1         0
     17520         1         0     17523         1         0     17526         1         0
     17529         1         0     17532         1         0     17535         1         0
     17538         1         0     17541         1         0     17544         1         0
     17547         1         0     17550         1         0     17553         1         0
     17556         1         0     17560         2         0     17567         2         0
     17578         1         0     17586         1         0     17595         1         0
     17598         1         0     17601         1         0     17603         1         0
     17605         1         0     17608         1         0     17610         1         0
     17612         1         0     17615         1         0     17617         1         0
     17619         1         0     17622         1         0     17624         1         0
     17626         1         0     17629         1         0     17632         1         0
     17635         1         0     17638         1         0     17642         1         0
     17645         1         0     17648         1         0     17651         1         0
     17654         1         0     17657         1         0     17660         1         0
     17663         1         0     17666         1         0     17669         1         0
     17672         1         0     17675         1         0     17678         1         0
     17681         1         0     17684         1         0     17687         1         0
     17691         2         0     17707         2         0     17718         1         0
     17726         1         0     17735         1         0     17738         1         0
     17741         1         0     17743         1         0     17745         1         0
     17748         1         0     17750         1         0     17752         1         0
     17755         1         0     17757         1         0     17759         1         0
     17762         1         0     17764         1         0     17766         1         0
     17769         1         0     17772         2         0     17775         1         0
     17778         2         0     17782         1         0     17785         1         0
     17788         1         0     17791         1         0     17794         1         0
     17797         1         0     17800         1         0     17803         1         0
     17806         1         0     17809         1         0     17812         1         0
     17815         1         0     17818         1         0     17821         1         0
     17824         1         0     17827         1         0     17831         2         0
     17837         2         0     17840         2         0     17851         1         0
     17859         1         0     17868         1         0     17871         1         0
     17874         1         0     17876         1         0     17878         1         0
     17881         1         0     17883         1         0     17885         1         0
     17888         1         0     17890         1         0     17892         1         0
     17895         1         0     17897         1         0     17899         1         0
     17902         1         0     17905         1         0     17908         1         0
     17911         1         0     17915         1         0     17918         1         0
     17921         1         0     17924         1         0     17927         1         0
     17930         1         0     17933         1         0     17936         1         0
     17939         1         0     17942         1         0     17945         1         0
     17948         1         0     17951         1         0     17954         1         0
     17957         1         0     17960         1         0     17964         1         0
     17968         1         0     17972         1         0     17976         1         0
     17980         1         0     17984         2         0     17994         1         0
     18002         1         0     18011         1         0     18014         1         0
     18017         1         0     18019         1         0     18021         1         0
     18024         1         0     18026         1         0     18028         1         0
     18031         1         0     18033         1         0     18035         1         0
     18038         1         0     18040         1         0     18042         1         0
     18045         1         0     18048         1         0     18051         1         0
     18054         1         0     18058         1         0     18061         1         0
     18064         1         0     18067         1         0     18070         1         0
     18073         1         0     18076         1         0     18079         1         0
     18082         1         0     18085         1         0     18088         1         0
     18091         1         0     18094         1         0     18097         1         0
     18100         1         0     18103         1         0     18107         2         0
     18114         2         0     18125         1         0     18133         1         0
     18142         1         0     18145         1         0     18148         1         0
     18150         1         0     18152         1         0     18155         1         0
     18157         1         0     18159         1         0     18162         1         0
     18164         1         0     18166         1         0     18169         1         0
     18171         1         0     18173         1         0     18176         1         0
     18179         1         0     18182         1         0     18185         1         0
     18189         1         0     18192         1         0     18195         1         0
     18198         1         0     18201         1         0     18204         1         0
     18207         1         0     18210         1         0     18213         1         0
     18216         1         0     18219         1         0     18222         1         0
     18225         1         0     18228         1         0     18231         1         0
     18234         1         0     18238         2         0     18245         2         0
     18256         1         0     18264         1         0     18273         1         0
     18276         1         0     18279         1         0     18281         1         0
     18283         1         0     18286         1         0     18288         1         0
     18290         1         0     18293         1         0     18295         1         0
     18297         1         0     18300         1         0     18302         1         0
     18304         1         0     18307         1         0     18310         1         0
     18313         1         0     18316         1         0     18320         1         0
     18323         1         0     18326         1         0     18329         1         0
     18332         1         0     18335         1         0     18338         1         0
     18341         1         0     18344         1         0     18347         1         0
     18350         1         0     18353         1         0     18356         1         0
     18359         1         0     18362         1         0     18365         1         0
     18369         2         0     18385         2         0     18396         1         0
     18400         1         0     18404         1         0     18406         1         0
     18408         1         0     18411         1         0     18414         1         0
     18417         1         0     18420         1         0     18423         1         0
     18426         1         0     18429         1         0     18432         1         0
     18435         1         0     18438         1         0     18441         1         0
     18444         1         0     18448         1         0     18453         1         0
     18456         1         0     18459         1         0     18462         1         0
     18465         1         0     18468         1         0     18471         1         0
     18473         1         0     18475         1         0     18478         1         0
     18481         1         0     18484         1         0     18487         1         0
     18490         1         0     18493         1         0     18496         1         0
     18500         2         0     18516         2         0     18527         1         0
     18531         1         0     18535         1         0     18537         1         0
     18539         1         0     18542         1         0     18545         1         0
     18548         1         0     18551         1         0     18554         1         0
     18557         1         0     18560         1         0     18563         1         0
     18566         1         0     18569         1         0     18572         1         0
     18575         1         0     18579         1         0     18584         1         0
     18587         1         0     18590         1         0     18593         1         0
     18596         1         0     18599         1         0     18602         1         0
     18604         1         0     18606         1         0     18609         1         0
     18612         1         0     18615         1         0     18618         1         0
     18621         1         0     18624         1         0     18627         1         0
     18631         1         0     18635         1         0     18638         1         0
     18641         1         0     18644         1         0     18646         1         0
     18648         1         0     18651         1         0     18654         1         0
     18656         0         0     18657         1         0     18661         1         0
     18664         1         0     18667         1         0     18669         0         0
     18670         1         0     18674         1         0     18677         1         0
     18680         1         0     18682         1         0     18686         1         0
     18689         1         0     18692         1         0     18695         1         0
     18697         1         0     18701         1         0     18705         2         0
     18712         2         0     18723         1         0     18731         1         0
     18740         1         0     18743         1         0     18746         1         0
     18748         1         0     18750         1         0     18753         1         0
     18755         1         0     18757         1         0     18760         1         0
     18762         1         0     18764         1         0     18767         1         0
     18769         1         0     18771         1         0     18774         1         0
     18777         1         0     18780         1         0     18783         1         0
     18787         1         0     18790         1         0     18793         1         0
     18796         1         0     18799         1         0     18802         1         0
     18805         1         0     18808         1         0     18811         1         0
     18814         1         0     18817         1         0     18820         1         0
     18823         1         0     18826         1         0     18829         1         0
     18832         1         0     18836         1         0     18840         1         0
     18843         1         0     18846         1         0     18849         1         0
     18851         1         0     18853         1         0     18856         1         0
     18859         1         0     18861         0         0     18862         1         0
     18866         1         0     18869         1         0     18872         1         0
     18874         0         0     18875         1         0     18879         1         0
     18882         1         0     18885         1         0     18887         1         0
     18891         1         0     18894         1         0     18897         1         0
     18900         1         0     18902         1         0     18906         1         0
     18910         2         0     18926         2         0     18937         1         0
     18945         1         0     18954         1         0     18957         1         0
     18960         1         0     18963         1         0     18966         1         0
     18969         1         0     18972         1         0     18974         1         0
     18976         1         0     18979         1         0     18982         1         0
     18985         1         0     18988         1         0     18991         1         0
     18994         1         0     18997         1         0     19001         1         0
     19004         1         0     19007         1         0     19010         1         0
     19013         1         0     19016         1         0     19019         1         0
     19022         1         0     19025         1         0     19028         1         0
     19031         1         0     19034         1         0     19037         1         0
     19040         1         0     19044         1         0     19048         1         0
     19051         1         0     19054         1         0     19057         1         0
     19059         1         0     19061         1         0     19064         1         0
     19067         1         0     19069         0         0     19070         1         0
     19074         1         0     19077         1         0     19080         1         0
     19082         0         0     19083         1         0     19087         1         0
     19090         1         0     19093         1         0     19095         1         0
     19099         1         0     19102         1         0     19105         1         0
     19108         1         0     19110         1         0     19114         1         0
     19118         2         0     19134         2         0     19145         1         0
     19153         1         0     19162         1         0     19165         1         0
     19168         1         0     19170         1         0     19172         1         0
     19175         1         0     19177         1         0     19179         1         0
     19182         1         0     19184         1         0     19186         1         0
     19189         1         0     19191         1         0     19193         1         0
     19196         1         0     19199         2         0     19202         1         0
     19205         2         0     19209         1         0     19212         1         0
     19215         1         0     19218         1         0     19221         1         0
     19224         1         0     19227         1         0     19230         1         0
     19233         1         0     19236         1         0     19239         1         0
     19242         1         0     19245         1         0     19248         1         0
     19251         1         0     19254         1         0     19258         2         0
     19264         2         0     19267         2         0     19278         1         0
     19286         1         0     19295         1         0     19298         1         0
     19301         1         0     19303         1         0     19305         1         0
     19308         1         0     19310         1         0     19312         1         0
     19315         1         0     19317         1         0     19319         1         0
     19322         1         0     19324         1         0     19326         1         0
     19329         1         0     19332         1         0     19335         1         0
     19338         1         0     19342         1         0     19345         1         0
     19348         1         0     19351         1         0     19354         1         0
     19357         1         0     19360         1         0     19363         1         0
     19366         1         0     19369         1         0     19372         1         0
     19375         1         0     19378         1         0     19381         1         0
     19384         1         0     19387         1         0     19391         2         0
     19407         2         0     19418         1         0     19422         1         0
     19426         1         0     19428         1         0     19430         1         0
     19433         1         0     19436         1         0     19439         1         0
     19442         1         0     19445         1         0     19448         1         0
     19451         1         0     19454         1         0     19457         1         0
     19460         1         0     19463         1         0     19466         1         0
     19470         1         0     19475         1         0     19478         1         0
     19481         1         0     19484         1         0     19487         1         0
     19490         1         0     19493         1         0     19495         1         0
     19497         1         0     19500         1         0     19503         1         0
     19506         1         0     19509         1         0     19512         1         0
     19515         1         0     19518         1         0     19522         2         0
     19528         2         0     19531         2         0     19542         1         0
     19550         1         0     19559         1         0     19562         1         0
     19565         1         0     19567         1         0     19569         1         0
     19572         1         0     19574         1         0     19576         1         0
     19579         1         0     19581         1         0     19583         1         0
     19586         1         0     19588         1         0     19590         1         0
     19593         1         0     19596         1         0     19599         1         0
     19602         1         0     19606         1         0     19609         1         0
     19612         1         0     19615         1         0     19618         1         0
     19621         1         0     19624         1         0     19627         1         0
     19630         1         0     19633         1         0     19636         1         0
     19639         1         0     19642         1         0     19645         1         0
     19648         1         0     19651         1         0     19655         2         0
     19662         2         0     19673         1         0     19681         1         0
     19690         1         0     19693         1         0     19696         1         0
     19698         1         0     19700         1         0     19703         1         0
     19705         1         0     19707         1         0     19710         1         0
     19712         1         0     19714         1         0     19717         1         0
     19719         1         0     19721         1         0     19724         1         0
     19727         1         0     19730         1         0     19733         1         0
     19737         1         0     19740         1         0     19743         1         0
     19746         1         0     19749         1         0     19752         1         0
     19755         1         0     19758         1         0     19761         1         0
     19764         1         0     19767         1         0     19770         1         0
     19773         1         0     19776         1         0     19779         1         0
     19782         1         0     19786         1         0     19790         1         0
     19793         1         0     19796         1         0     19799         1         0
     19801         1         0     19803         1         0     19806         1         0
     19809         1         0     19811         0         0     19812         1         0
     19816         1         0     19819         1         0     19822         1         0
     19824         0         0     19825         1         0     19829         1         0
     19832         1         0     19835         1         0     19837         1         0
     19841         1         0     19844         1         0     19847         1         0
     19850         1         0     19852         1         0     19856         1         0
     19860         1         0     19864         1         0     19867         1         0
     19870         1         0     19873         1         0     19875         1         0
     19877         1         0     19880         1         0     19883         1         0
     19885         0         0     19886         1         0     19890         1         0
     19893         1         0     19896         1         0     19898         0         0
     19899         1         0     19903         1         0     19906         1         0
     19909         1         0     19911         1         0     19915         1         0
     19918         1         0     19921         1         0     19924         1         0
     19926         1         0     19930         1         0     19934         2         0
     19950         2         0     19961         1         0     19969         1         0
     19978         1         0     19981         1         0     19984         1         0
     19987         1         0     19990         1         0     19993         1         0
     19996         1         0     19998         1         0     20000         1         0
     20003         1         0     20005         1         0     20007         1         0
     20010         1         0     20013         1         0     20016         1         0
     20019         1         0     20023         1         0     20026         1         0
     20029         1         0     20032         1         0     20035         1         0
     20038         1         0     20041         1         0     20044         1         0
     20047         1         0     20050         1         0     20053         1         0
     20056         1         0     20059         1         0     20062         1         0
     20065         1         0     20068         1         0     20072         1         0
     20076         1         0     20079         1         0     20082         1         0
     20085         1         0     20087         1         0     20089         1         0
     20092         1         0     20095         1         0     20097         0         0
     20098         1         0     20102         1         0     20105         1         0
     20108         1         0     20110         0         0     20111         1         0
     20115         1         0     20118         1         0     20121         1         0
     20123         1         0     20127         1         0     20130         1         0
     20133         1         0     20136         1         0     20138         1         0
     20142         1         0     20146         2         0     20153         2         0
     20164         1         0     20172         1         0     20181         1         0
     20184         1         0     20187         1         0     20189         1         0
     20191         1         0     20194         1         0     20196         1         0
     20198         1         0     20201         1         0     20203         1         0
     20205         1         0     20208         1         0     20210         1         0
     20212         1         0     20215         1         0     20218         1         0
     20221         1         0     20224         1         0     20228         1         0
     20231         1         0     20234         1         0     20237         1         0
     20240         1         0     20243         1         0     20246         1         0
     20249         1         0     20252         1         0     20255         1         0
     20258         1         0     20261         1         0     20264         1         0
     20267         1         0     20270         1         0     20273         1         0
     20277         1         0     20281         1         0     20284         1         0
     20287         1         0     20290         1         0     20292         1         0
     20294         1         0     20297         1         0     20300         1         0
     20302         0         0     20303         1         0     20307         1         0
     20310         1         0     20313         1         0     20315         0         0
     20316         1         0     20320         1         0     20323         1         0
     20326         1         0     20328         1         0     20332         1         0
     20335         1         0     20338         1         0     20341         1         0
     20343         1         0     20347         1         0     20351         1         0
     20355         1         0     20358         1         0     20361         1         0
     20364         1         0     20366         1         0     20368         1         0
     20371         1         0     20374         1         0     20376         0         0
     20377         1         0     20381         1         0     20384         1         0
     20387         1         0     20389         0         0     20390         1         0
     20394         1         0     20397         1         0     20400         1         0
     20402         1         0     20406         1         0     20409         1         0
     20412         1         0     20415         1         0     20417         1         0
     20421         1         0     20425         2         0     20432         2         0
     20443         1         0     20451         1         0     20460         1         0
     20463         1         0     20466         1         0     20468         1         0
     20470         1         0     20473         1         0     20475         1         0
     20477         1         0     20480         1         0     20482         1         0
     20484         1         0     20487         1         0     20489         1         0
     20491         1         0     20494         1         0     20497         1         0
     20500         1         0     20503         1         0     20507         1         0
     20510         1         0     20513         1         0     20516         1         0
     20519         1         0     20522         1         0     20525         1         0
     20528         1         0     20531         1         0     20534         1         0
     20537         1         0     20540         1         0     20543         1         0
     20546         1         0     20549         1         0     20552         1         0
     20556         2         0     20572         2         0     20583         1         0
     20591         1         0     20600         1         0     20603         1         0
     20606         1         0     20609         1         0     20612         1         0
     20615         1         0     20618         1         0     20620         1         0
     20622         1         0     20625         1         0     20627         1         0
     20629         1         0     20632         1         0     20635         1         0
     20638         1         0     20641         1         0     20645         1         0
     20648         1         0     20651         1         0     20654         1         0
     20657         1         0     20660         1         0     20663         1         0
     20666         1         0     20669         1         0     20672         1         0
     20675         1         0     20678         1         0     20681         1         0
     20684         1         0     20687         1         0     20690         1         0
     20694         1         0     20698         1         0     20701         1         0
     20704         1         0     20707         1         0     20709         1         0
     20711         1         0     20714         1         0     20717         1         0
     20719         0         0     20720         1         0     20724         1         0
     20727         1         0     20730         1         0     20732         0         0
     20733         1         0     20737         1         0     20740         1         0
     20743         1         0     20745         1         0     20749         1         0
     20752         1         0     20755         1         0     20758         1         0
     20760         1         0     20764         1         0     20768         2         0
     20775         2         0     20786         1         0     20794         1         0
     20803         1         0     20806         1         0     20809         1         0
     20811         1         0     20813         1         0     20816         1         0
     20818         1         0     20820         1         0     20823         1         0
     20825         1         0     20827         1         0     20830         1         0
     20832         1         0     20834         1         0     20837         1         0
     20840         1         0     20843         1         0     20846         1         0
     20850         1         0     20853         1         0     20856         1         0
     20859         1         0     20862         1         0     20865         1         0
     20868         1         0     20871         1         0     20874         1         0
     20877         1         0     20880         1         0     20883         1         0
     20886         1         0     20889         1         0     20892         1         0
     20895         1         0     20899         2         0     20906         2         0
     20917         1         0     20925         1         0     20934         1         0
     20937         1         0     20940         1         0     20943         1         0
     20946         1         0     20949         1         0     20952         1         0
     20954         1         0     20956         1         0     20959         1         0
     20962         1         0     20965         1         0     20968         1         0
     20971         1         0     20974         1         0     20977         1         0
     20981         1         0     20984         1         0     20987         1         0
     20990         1         0     20993         1         0     20996         1         0
     20999         1         0     21002         1         0     21005         1         0
     21008         1         0     21011         1         0     21014         1         0
     21017         1         0     21020         1         0     21023         1         0
     21026         1         0     21030         2         0     21037         2         0
     21048         1         0     21056         1         0     21065         1         0
     21068         1         0     21071         1         0     21074         1         0
     21077         1         0     21080         1         0     21083         1         0
     21085         1         0     21087         1         0     21090         1         0
     21093         1         0     21096         1         0     21099         1         0
     21102         1         0     21105         1         0     21108         1         0
     21112         1         0     21115         1         0     21118         1         0
     21121         1         0     21124         1         0     21127         1         0
     21130         1         0     21133         1         0     21136         1         0
     21139         1         0     21142         1         0     21145         1         0
     21148         1         0     21151         1         0     21154         1         0
     21157         1         0     21161         1         0     21165         1         0
     21168         1         0     21171         1         0     21174         1         0
     21176         1         0     21178         1         0     21181         1         0
     21184         1         0     21186         0         0     21187         1         0
     21191         1         0     21194         1         0     21197         1         0
     21199         0         0     21200         1         0     21204         1         0
     21207         1         0     21210         1         0     21212         1         0
     21216         1         0     21219         1         0     21222         1         0
     21225         1         0     21227         1         0     21231         1         0
     21235         2         0     21251         2         0     21262         1         0
     21266         1         0     21270         1         0     21272         1         0
     21274         1         0     21277         1         0     21280         1         0
     21283         1         0     21286         1         0     21289         1         0
     21292         1         0     21295         1         0     21298         1         0
     21301         1         0     21304         1         0     21307         1         0
     21310         1         0     21314         1         0     21319         1         0
     21322         1         0     21325         1         0     21328         1         0
     21331         1         0     21334         1         0     21337         1         0
     21339         1         0     21341         1         0     21344         1         0
     21347         1         0     21350         1         0     21353         1         0
     21356         1         0     21359         1         0     21362         1         0
     21366         2         0     21373         2         0     21384         1         0
     21392         1         0     21401         1         0     21404         1         0
     21407         1         0     21409         1         0     21411         1         0
     21414         1         0     21416         1         0     21418         1         0
     21421         1         0     21423         1         0     21425         1         0
     21428         1         0     21430         1         0     21432         1         0
     21435         1         0     21438         1         0     21441         1         0
     21444         1         0     21448         1         0     21451         1         0
     21454         1         0     21457         1         0     21460         1         0
     21463         1         0     21466         1         0     21469         1         0
     21472         1         0     21475         1         0     21478         1         0
     21481         1         0     21484         1         0     21487         1         0
     21490         1         0     21493         1         0     21497         2         0
     21513         2         0     21524         1         0     21528         1         0
     21532         1         0     21534         1         0     21536         1         0
     21539         1         0     21542         1         0     21545         1         0
     21548         1         0     21551         1         0     21554         1         0
     21557         1         0     21560         1         0     21563         1         0
     21566         1         0     21569         1         0     21572         1         0
     21576         1         0     21581         1         0     21584         1         0
     21587         1         0     21590         1         0     21593         1         0
     21596         1         0     21599         1         0     21601         1         0
     21603         1         0     21606         1         0     21609         1         0
     21612         1         0     21615         1         0     21618         1         0
     21621         1         0     21624         1         0     21628         1         0
     21632         1         0     21635         1         0     21638         1         0
     21641         1         0     21643         1         0     21645         1         0
     21648         1         0     21651         1         0     21653         0         0
     21654         1         0     21658         1         0     21661         1         0
     21664         1         0     21666         0         0     21667         1         0
     21671         1         0     21674         1         0     21677         1         0
     21679         1         0     21683         1         0     21686         1         0
     21689         1         0     21692         1         0     21694         1         0
     21698         1         0     21702         2         0     21718         2         0
     21729         1         0     21733         1         0     21737         1         0
     21739         1         0     21741         1         0     21744         1         0
     21747         1         0     21750         1         0     21753         1         0
     21756         1         0     21759         1         0     21762         1         0
     21765         1         0     21768         1         0     21771         1         0
     21774         1         0     21777         1         0     21781         1         0
     21786         1         0     21789         1         0     21792         1         0
     21795         1         0     21798         1         0     21801         1         0
     21804         1         0     21806         1         0     21808         1         0
     21811         1         0     21814         1         0     21817         1         0
     21820         1         0     21823         1         0     21826         1         0
     21829         1         0     21833         2         0     21849         2         0
     21860         1         0     21864         1         0     21868         1         0
     21870         1         0     21872         1         0     21875         1         0
     21878         1         0     21881         1         0     21884         1         0
     21887         1         0     21890         1         0     21893         1         0
     21896         1         0     21899         1         0     21902         1         0
     21905         1         0     21908         1         0     21912         1         0
     21917         1         0     21920         1         0     21923         1         0
     21926         1         0     21929         1         0     21932         1         0
     21935         1         0     21937         1         0     21939         1         0
     21942         1         0     21945         1         0     21948         1         0
     21951         1         0     21954         1         0     21957         1         0
     21960         1         0     21964         1         0     21968         1         0
     21971         1         0     21974         1         0     21977         1         0
     21979         1         0     21981         1         0     21984         1         0
     21987         1         0     21989         0         0     21990         1         0
     21994         1         0     21997         1         0     22000         1         0
     22002         0         0     22003         1         0     22007         1         0
     22010         1         0     22013         1         0     22015         1         0
     22019         1         0     22022         1         0     22025         1         0
     22028         1         0     22030         1         0     22034         1         0
     22038         2         0     22054         2         0     22065         1         0
     22073         1         0     22082         1         0     22085         1         0
     22088         1         0     22090         1         0     22092         1         0
     22095         1         0     22097         1         0     22099         1         0
     22102         1         0     22104         1         0     22106         1         0
     22109         1         0     22111         1         0     22113         1         0
     22116         1         0     22119         2         0     22122         1         0
     22125         2         0     22129         1         0     22132         1         0
     22135         1         0     22138         1         0     22141         1         0
     22144         1         0     22147         1         0     22150         1         0
     22153         1         0     22156         1         0     22159         1         0
     22162         1         0     22165         1         0     22168         1         0
     22171         1         0     22174         1         0     22178         1         0
     22182         1         0     22185         1         0     22188         1         0
     22191         1         0     22193         1         0     22195         1         0
     22198         1         0     22201         1         0     22203         0         0
     22204         1         0     22208         1         0     22211         1         0
     22214         1         0     22216         0         0     22217         1         0
     22221         1         0     22224         1         0     22227         1         0
     22229         1         0     22233         1         0     22236         1         0
     22239         1         0     22242         1         0     22244         1         0
     22248         1         0     22252         1         0     22255         1         0
     22258         1         0     22261         1         0     22264         1         0
     22267         1         0     22270         1         0     22273         1         0
     22276         1         0     22279         1         0     22282         1         0
     22285         1         0     22288         1         0     22291         1         0
     22294         1         0     22297         1         0     22300         1         0
     22303         1         0     22306         1         0     22309         1         0
     22312         1         0     22315         1         0     22318         1         0
     22321         1         0     22324         1         0     22327         1         0
     22330         1         0     22333         1         0     22336         1         0
     22339         1         0     22342         1         0     22345         1         0
     22348         1         0     22351         1         0     22354         1         0
     22357         1         0     22360         1         0     22363         1         0
     22366         1         0     22369         1         0     22372         1         0
     22375         1         0     22378         1         0     22381         1         0
     22384         1         0     22387         1         0     22390         1         0
     22393         1         0     22396         1         0     22399         1         0
     22402         1         0     22405         1         0     22408         1         0
     22411         1         0     22414         1         0     22417         1         0
     22420         1         0     22423         1         0     22426         1         0
     22429         1         0     22432         1         0     22435         1         0
     22438         1         0     22441         1         0     22444         1         0
     22447         1         0     22450         1         0     22453         1         0
     22456         1         0     22459         1         0     22462         1         0
     22465         1         0     22468         1         0     22471         1         0
     22474         1         0     22477         1         0     22480         1         0
     22483         1         0     22486         1         0     22489         1         0
     22492         1         0     22495         1         0     22498         1         0
     22501         1         0     22504         1         0     22507         1         0
     22510         1         0     22513         1         0     22516         1         0
     22519         1         0     22522         1         0     22525         1         0
     22528         1         0     22531         1         0     22534         1         0
     22537         1         0     22540         1         0     22543         1         0
     22546         1         0     22549         1         0     22552         1         0
     22555         1         0     22558         1         0     22561         1         0
     22564         1         0     22567         1         0

         0         0 !NUMLP NUMLPH

         0 !NCRTERM: cross-terms


       106 !AUTOGEN
         0         0         0         0         0         0         0         0
         0         0         0         0         0         0         0         0
         0         0         0         0         0         0         0         0
         0         0         0         0         0         0         0         0
         0         0         0         0         0         0         0         0
         0         0         0         0         0         0         0         0
         0         0         0         0         0         0         0         0
         0         0         0         0         0         0         0         0
         0         0         0         0         0         0         0         0
         0         0         0         0         0         0         0         0
         0         0         0         0         0         0         0         0
         0         0         0         0         0         0         0         0
         0         0         0         0         0         0         0         0
         0         0         0         0         0         0         0         0
         0         0         0         0         0         0         0         0
         0         0         0         0         0         0         0         0
         0         0         0         0         0         0         0         0
         0         0         0         0         0         0         0         0
         0         0         0         0         0         0         0         0
         0         0         0         0         0         0         0         0
         0         0         0         0         0         0         0         0
         0         0         0         0         0         0         0         0
         0         0         0         0         0         0         0         0
         0         0         0         0         0         0         0         0
         0         0         0         0         0         0         0         0
         0         0         0         0         0         0         0         0
         0         0         0         0         0         0         0         0
         0         0         0         0         0         0         0         0
         0         0         0         0         0         0         0         0
         0         0         0         0         0         0         0         0
         0         0         0         0         0         0         0         0
         0         0         0         0         0         0         0         0
         0         0         0         0         0         0         0         0
         0         0         0         0         0         0         0         0
         0         0         0         0         0         0         0         0
         0         0         0         0         0         0         0         0
         0         0         0         0         0         0         0         0
         0         0         0         0         0         0         0         0
         0         0         0         0         0         0         0         0
         0         0         0         0         0         0         0         0
         0         0         0         0         0         0         0         0
         0         0         0         0         0         0         0         0
         0         0         0         0         0         0         0         0
         0         0         0         0         0         0         0         0
         0         0         0         0         0         0         0         0
         0         0         0         0         0         0         0         0
         0         0         0         0         0         0         0         0
         0         0         0         0         0         0         0         0
         0         0         0         0         0         0         0         0
         0         0         0         0         0         0         0         0
         0         0         0         0         0         0         0         0
         0         0         0         0         0         0         0         0
         0         0         0         0         0         0         0         0
         0         0         0         0         0         0         0         0
         0         0         0         0         0         0         0         0
         0         0         0         0         0         0         0         0
         0         0         0         0         0         0         0         0
         0         0         0         0         0         0         0         0
         0         0         0         0         0         0         0         0
         0         0         0         0         0         0         0         0
         0         0         0         0         0         0         0         0
         0         0         0         0         0         0         0         0
         0         0         0         0         0         0         0         0
         0         0         0         0         0         0         0         0
         0         0         0         0         0         0         0         0
         0         0         0         0         0         0         0         0
         0         0         0         0         0         0         0         0
         0         0         0         0         0         0         0         0
         0         0         0         0         0         0         0         0
         0         0         0         0         0         0         0         0
         0         0         0         0         0         0         0         0
         0         0         0         0         0         0         0         0
         0         0         0         0         0         0         0         0
         0         0         0         0         0         0         0         0
         0         0         0         0         0         0         0         0
         0         0         0         0         0         0         0         0
         0         0         0         0         0         0         0         0
         0         0         0         0         0         0         0         0
         0         0         0         0         0         0         0         0
         0         0         0         0         0         0         0         0
         0         0         0         0         0         0         0         0
         0         0         0         0         0         0         0         0
         0         0         0         0         0         0         0         0
         0         0         0         0         0         0         0         0
         0         0         0         0         0         0         0         0
         0         0         0         0         0         0         0         0
         0         0         0         0         0         0         0         0
         0         0         0         0         0         0         0         0
         0         0         0         0         0         0         0         0
         0         0         0         0         0         0         0         0
         0         0         0         0         0         0         0         0
         0         0         0         0         0         0         0         0
         0         0         0         0         0         0         0         0
         0         0         0         0         0         0         0         0
         0         0         0         0         0         0         0         0
         0         0         0         0         0         0         0         0
         0         0         0         0         0         0         0         0
         0         0         0         0         0         0         0         0
         0         0         0         0         0         0         0         0
         0         0         0         0         0         0         0         0
         0         0         0         0         0         0         0         0
         0         0         0         0         0         0         0         0
         0         0         0         0         0         0         0         0
         0         0         0         0         0         0         0         0
         0         0         0         0         0         0         0         0
         0         0         0         0         0         0         0         0
         0         0         0         0         0         0         0         0
         0         0         0         0         0         0         0         0
         0         0         0         0         0         0         0         0
         0         0         0         0         0         0         0         0
         0         0         0         0         0         0         0         0
         0         0         0         0         0         0         0         0
         0         0         0         0         0         0         0         0
         0         0         0         0         0         0         0         0
         0         0         0         0         0         0         0         0
         0         0         0         0         0         0         0         0
         0         0         0         0         0         0         0         0
         0         0         0         0         0         0         0         0
         0         0         0         0         0         0         0         0
         0         0         0         0         0         0         0         0
         0         0         0         0         0         0         0         0
         0         0         0         0         0         0         0         0
         0         0         0         0         0         0         0         0
         0         0         0         0         0         0         0         0
         0         0         0         0         0         0         0         0
         0         0         0         0         0         0         0         0
         0         0         0         0         0         0         0         0
         0         0         0         0         0         0         0         0
         0         0         0         0         0         0         0         0
         0         0         0         0         0         0         0         0
         0         0         0         0         0         0         0         0
         0         0         0         0         0         0         0         0
         0         0         0         0         0         0         0         0
         0         0         0         0         0         0         0         0
         0         0         0         0         0         0         0         0
         0         0         0         0         0         0         0         0
         0         0         0         0         0         0         0         0
         0         0         0         0         0         0         0         0
         0         0         0         0         0         0         0         0
         0         0         0         0         0         0         0         0
         0         0         0         0         0         0         0         0
         0         0         0         0         0         0         0         0
         0         0         0         0         0         0         0         0
         0         0         0         0         0         0         0         0
         0         0         0         0         0         0         0         0
         0         0         0         0         0         0         0         0
         0         0         0         0         0         0         0         0
         0         0         0         0         0         0         0         0
         0         0         0         0         0         0         0         0
         0         0         0         0         0         0         0         0
         0         0         0         0         0         0         0         0
         0         0         0         0         0         0         0         0
         0         0         0         0         0         0         0         0
         0         0         0         0         0         0         0         0
         0         0         0         0         0         0         0         0
         0         0         0         0         0         0         0         0
         0         0         0         0         0         0         0         0
         0         0         0         0         0         0         0         0
         0         0         0         0         0         0         0         0
         0         0         0         0         0         0         0         0
         0         0         0         0         0         0         0         0
         0         0         0         0         0         0         0         0
         0         0         0         0         0         0         0         0
         0         0         0         0         0         0         0         0
         0         0         0         0         0         0         0         0
         0         0         0         0         0         0         0         0
         0         0         0         0         0         0         0         0
         0         0         0         0         0         0         0         0
         0         0         0         0         0         0         0         0
         0         0         0         0         0         0         0         0
         0         0         0         0         0         0         0         0
         0         0         0         0         0         0         0         0
         0         0         0         0         0         0         0         0
         0         0         0         0         0         0         0         0
         0         0         0         0         0         0         0         0
         0         0         0         0         0         0         0         0
         0         0         0         0         0         0         0         0
         0         0         0         0         0         0         0         0
         0         0         0         0         0         0         0         0
         0         0         0         0         0         0         0         0
         0         0         0         0         0         0         0         0
         0         0         0         0         0         0         0         0
         0         0         0         0         0         0         0         0
         0         0         0         0         0         0         0         0
         0         0         0         0         0         0         0         0
         0         0         0         0         0         0         0         0
         0         0         0         0         0         0         0         0
         0         0         0         0         0         0         0         0
         0         0         0         0         0         0         0         0
         0         0         0         0         0         0         0         0
         0         0         0         0         0         0         0         0
         0         0         0         0         0         0         0         0
         0         0         0         0         0         0         0         0
         0         0         0         0         0         0         0         0
         0         0         0         0         0         0         0         0
         0         0         0         0         0         0         0         0
         0         0         0         0         0         0         0         0
         0         0         0         0         0         0         0         0
         0         0         0         0         0         0         0         0
         0         0         0         0         0         0         0         0
         0         0         0         0         0         0         0         0
         0         0         0         0         0         0         0         0
         0         0         0         0         0         0         0         0
         0         0         0         0         0         0         0         0
         0         0         0         0         0         0         0         0
         0         0         0         0         0         0         0         0
         0         0         0         0         0         0         0         0
         0         0         0         0         0         0         0         0
         0         0         0         0         0         0         0         0
         0         0         0         0         0         0         0         0
         0         0         0         0         0         0         0         0
         0         0         0         0         0         0         0         0
         0         0         0         0         0         0         0         0
         0         0         0         0         0         0         0         0
         0         0         0         0         0         0         0         0
         0         0         0         0         0         0         0         0
         0         0         0         0         0         0         0         0
         0         0         0         0         0         0         0         0
         0         0         0         0         0         0         0         0
         0         0         0         0         0         0         0         0
         0         0         0         0         0         0         0         0
         0         0         0         0         0         0         0         0
         0         0         0         0         0         0         0         0
         0         0         0         0         0         0         0         0
         0         0         0         0         0         0         0         0
         0         0         0         0         0         0         0         0
         0         0         0         0         0         0         0         0
         0         0         0         0         0         0         0         0
         0         0         0         0         0         0         0         0
         0         0         0         0         0         0         0         0
         0         0         0         0         0         0         0         0
         0         0         0         0         0         0         0         0
         0         0         0         0         0         0         0         0
         0         0         0         0         0         0         0         0
         0         0         0         0         0         0         0         0
         0         0         0         0         0         0         0         0
         0         0         0         0         0         0         0         0
         0         0         0         0         0         0         0         0
         0         0         0         0         0         0         0         0
         0         0         0         0         0         0         0         0
         0         0         0         0         0         0         0         0
         0         0         0         0         0         0         0         0
         0         0         0         0         0         0         0         0
         0         0         0         0         0         0         0         0
         0         0         0         0         0         0         0         0
         0         0         0         0         0         0         0         0
         0         0         0         0         0         0         0         0
         0         0         0         0         0         0         0         0
         0         0         0         0         0         0         0         0
         0         0         0         0         0         0         0         0
         0         0         0         0         0         0         0         0
         0         0         0         0         0         0         0         0
         0         0         0         0         0         0         0         0
         0         0         0         0         0         0         0         0
         0         0         0         0         0         0         0         0
         0         0         0         0         0         0         0         0
         0         0         0         0         0         0         0         0
         0         0         0         0         0         0         0         0
         0         0         0         0         0         0         0         0
         0         0         0         0         0         0         0         0
         0         0         0         0         0         0         0         0
         0         0         0         0         0         0         0         0
         0         0         0         0         0         0         0         0
         0         0         0         0         0         0         0         0
         0         0         0         0         0         0         0         0
         0         0         0         0         0         0         0         0
         0         0         0         0         0         0         0         0
         0         0         0         0         0         0         0         0
         0         0         0         0         0         0         0         0
         0         0         0         0         0         0         0         0
         0         0         0         0         0         0         0         0
         0         0         0         0         0         0         0         0
         0         0         0         0         0         0         0         0
         0         0         0         0         0         0         0         0
         0         0         0         0         0         0         0         0
         0         0         0         0         0         0         0         0
         0         0         0         0         0         0         0         0
         0         0         0         0         0         0         0         0
         0         0         0         0         0         0         0         0
         0         0         0         0         0         0         0         0
         0         0         0         0         0         0         0         0
         0         0         0         0         0         0         0         0
         0         0         0         0         0         0         0         0
         0         0         0         0         0         0         0         0
         0         0         0         0         0         0         0         0
         0         0         0         0         0         0         0         0
         0         0         0         0         0         0         0         0
         0         0         0         0         0         0         0         0
         0         0         0         0         0         0         0         0
         0         0         0         0         0         0         0         0
         0         0         0         0         0         0         0         0
         0         0         0         0         0         0         0         0
         0         0         0         0         0         0         0         0
         0         0         0         0         0         0         0         0
         0         0         0         0         0         0         0         0
         0         0         0         0         0         0         0         0
         0         0         0         0         0         0         0         0
         0         0         0         0         0         0         0         0
         0         0         0         0         0         0         0         0
         0         0         0         0         0         0         0         0
         0         0         0         0         0         0         0         0
         0         0         0         0         0         0         0         0
         0         0         0         0         0         0         0         0
         0         0         0         0         0         0         0         0
         0         0         0         0         0         0         0         0
         0         0         0         0         0         0         0         0
         0         0         0         0         0         0         0         0
         0         0         0         0         0         0         0         0
         0         0         0         0         0         0         0         0
         0         0         0         0         0         0         0         0
         0         0         0         0         0         0         0         0
         0         0         0         0         0         0         0         0
         0         0         0         0         0         0         0         0
         0         0         0         0         0         0         0         0
         0         0         0         0         0         0         0         0
         0         0         0         0         0         0         0         0
         0         0         0         0         0         0         0         0
         0         0         0         0         0         0         0         0
         0         0         0         0         0         0         0         0
         0         0         0         0         0         0         0         0
         0         0         0         0         0         0         0         0
         0         0         0         0         0         0         0         0
         0         0         0         0         0         0         0         0
         0         0         0         0         0         0         0         0
         0         0         0         0         0         0         0         0
         0         0         0         0         0         0         0         0
         0         0         0         0         0         0         0         0
         0         0         0         0         0         0         0         0
         0         0         0         0         0         0         0         0
         0         0         0         0         0         0         0         0
         0         0         0         0         0         0         0         0
         0         0         0         0         0         0         0         0
         0         0         0         0         0         0         0         0
         0         0         0         0         0         0         0         0
         0         0         0         0         0         0         0         0
         0         0         0         0         0         0         0         0
         0         0         0         0         0         0         0         0
         0         0         0         0         0         0         0         0
         0         0         0         0         0         0         0         0
         0         0         0         0         0         0         0         0
         0         0         0         0         0         0         0         0
         0         0         0         0         0         0         0         0
         0         0         0         0         0         0         0         0
         0         0         0         0         0         0         0         0
         0         0         0         0         0         0         0         0
         0         0         0         0         0         0         0         0
         0         0         0         0         0         0         0         0
         0         0         0         0         0         0         0         0
         0         0         0         0         0         0         0         0
         0         0         0         0         0         0         0         0
         0         0         0         0         0         0         0         0
         0         0         0         0         0         0         0         0
         0         0         0         0         0         0         0         0
         0         0         0         0         0         0         0         0
         0         0         0         0         0         0         0         0
         0         0         0         0         0         0         0         0
         0         0         0         0         0         0         0         0
         0         0         0         0         0         0         0         0
         0         0         0         0         0         0         0         0
         0         0         0         0         0         0         0         0
         0         0         0         0         0         0         0         0
         0         0         0         0         0         0         0         0
         0         0         0         0         0         0         0         0
         0         0         0         0         0         0         0         0
         0         0         0         0         0         0         0         0
         0         0         0         0         0         0         0         0
         0         0         0         0         0         0         0         0
         0         0         0         0         0         0         0         0
         0         0         0         0         0         0         0         0
         0         0         0         0         0         0         0         0
         0         0         0         0         0         0         0         0
         0         0         0         0         0         0         0         0
         0         0         0         0         0         0         0         0
         0         0         0         0         0         0         0         0
         0         0         0         0         0         0         0         0
         0         0         0         0         0         0         0         0
         0         0         0         0         0         0         0         0
         0         0         0         0         0         0         0         0
         0         0         0         0         0         0         0         0
         0         0         0         0         0         0         0         0
         0         0         0         0         0         0         0         0
         0         0         0         0         0         0         0         0
         0         0         0         0         0         0         0         0
         0         0         0         0         0         0         0         0
         0         0         0         0         0         0         0         0
         0         0         0         0         0         0         0         0
         0         0         0         0         0         0         0         0
         0         0         0         0         0         0         0         0
         0         0         0         0         0         0         0         0
         0         0         0         0         0         0         0         0
         0         0         0         0         0         0         0         0
         0         0         0         0         0         0         0         0
         0         0         0         0         0         0         0         0
         0         0         0         0         0         0         0         0
         0         0         0         0         0         0         0         0
         0         0         0         0         0         0         0         0
         0         0         0         0         0         0         0         0
         0         0         0         0         0         0         0         0
         0         0         0         0         0         0         0         0
         0         0         0         0         0         0         0         0
         0         0         0         0         0         0         0         0
         0         0         0         0         0         0         0         0
         0         0         0         0         0         0         0         0
         0         0         0         0         0         0         0         0
         0         0         0         0         0         0         0         0
         0         0         0         0         0         0         0         0
         0         0         0         0         0         0         0         0
         0         0         0         0         0         0         0         0
         0         0         0         0         0         0         0         0
         0         0         0         0         0         0         0         0
         0         0         0         0         0         0         0         0
         0         0         0         0         0         0         0         0
         0         0         0         0         0         0         0         0
         0         0         0         0         0         0         0         0
         0         0         0         0         0         0         0         0
         0         0         0         0         0         0         0         0
         0         0         0         0         0         0         0         0
         0         0         0         0         0         0         0         0
         0         0         0         0         0         0         0         0
         0         0         0         0         0         0         0         0
         0         0         0         0         0         0         0         0
         0         0         0         0         0         0         0         0
         0         0         0         0         0         0         0         0
         0         0         0         0         0         0         0         0
         0         0         0         0         0         0         0         0
         0         0         0         0         0         0         0         0
         0         0         0         0         0         0         0         0
         0         0         0         0         0         0         0         0
         0         0         0         0         0         0         0         0
         0         0         0         0         0         0         0         0
         0         0         0         0         0         0         0         0
         0         0         0         0         0         0         0         0
         0         0         0         0         0         0         0         0
         0         0         0         0         0         0         0         0
         0         0         0         0         0         0         0         0
         0         0         0         0         0         0         0         0
         0         0         0         0         0         0         0         0
         0         0         0         0         0         0         0         0
         0         0         0         0         0         0         0         0
         0         0         0         0         0         0         0         0
         0         0         0         0         0         0         0         0
         0         0         0         0         0         0         0         0
         0         0         0         0         0         0         0         0
         0         0         0         0         0         0         0         0
         0         0         0         0         0         0         0         0
         0         0         0         0         0         0         0         0
         0         0         0         0         0         0         0         0
         0         0         0         0         0         0         0         0
         0         0         0         0         0         0         0         0
         0         0         0         0         0         0         0         0
         0         0         0         0         0         0         0         0
         0         0         0         0         0         0         0         0
         0         0         0         0         0         0         0         0
         0         0         0         0         0         0         0         0
         0         0         0         0         0         0         0         0
         0         0         0         0         0         0         0         0
         0         0         0         0         0         0         0         0
         0         0         0         0         0         0         0         0
         0         0         0         0         0         0         0         0
         0         0         0         0         0         0         0         0
         0         0         0         0         0         0         0         0
         0         0         0         0         0         0         0         0
         0         0         0         0         0         0         0         0
         0         0         0         0         0         0         0         0
         0         0         0         0         0         0         0         0
         0         0         0         0         0         0         0         0
         0         0         0         0         0         0         0         0
         0         0         0         0         0         0         0         0
         0         0         0         0         0         0         0         0
         0         0         0         0         0         0         0         0
         0         0         0         0         0         0         0         0
         0         0         0         0         0         0         0         0
         0         0         0         0         0         0         0         0
         0         0         0         0         0         0         0         0
         0         0         0         0         0         0         0         0
         0         0         0         0         0         0         0         0
         0         0         0         0         0         0         0         0
         0         0         0         0         0         0         0         0
         0         0         0         0         0         0         0         0
         0         0         0         0         0         0         0         0
         0         0         0         0         0         0         0         0
         0         0         0         0         0         0         0         0
         0         0         0         0         0         0         0         0
         0         0         0         0         0         0         0         0
         0         0         0         0         0         0         0         0
         0         0         0         0         0         0         0         0
         0         0         0         0         0         0         0         0
         0         0         0         0         0         0         0         0
         0         0         0         0         0         0         0         0
         0         0         0         0         0         0         0         0
         0         0         0         0         0         0         0         0
         0         0         0         0         0         0         0         0
         0         0         0         0         0         0         0         0
         0         0         0         0         0         0         0         0
         0         0         0         0         0         0         0         0
         0         0         0         0         0         0         0         0
         0         0         0         0         0         0         0         0
         0         0         0         0         0         0         0         0
         0         0         0         0         0         0         0         0
         0         0         0         0         0         0         0         0
         0         0         0         0         0         0         0         0
         0         0         0         0         0         0         0         0
         0         0         0         0         0         0         0         0
         0         0         0         0         0         0         0         0
         0         0         0         0         0         0         0         0
         0         0         0         0         0         0         0         0
         0         0         0         0         0         0         0         0
         0         0         0         0         0         0         0         0
         0         0         0         0         0         0         0         0
         0         0         0         0         0         0         0         0
         0         0         0         0         0         0         0         0
         0         0         0         0         0         0         0         0
         0         0         0         0         0         0         0         0
         0         0         0         0         0         0         0         0
         0         0         0         0         0         0         0         0
         0         0         0         0         0         0         0         0
         0         0         0         0         0         0         0         0
         0         0         0         0         0         0         0         0
         0         0         0         0         0         0         0         0
         0         0         0         0         0         0         0         0
         0         0         0         0         0         0         0         0
         0         0         0         0         0         0         0         0
         0         0         0         0         0         0         0         0
         0         0         0         0         0         0         0         0
         0         0         0         0         0         0         0         0
         0         0         0         0         0         0         0         0
         0         0         0         0         0         0         0         0
         0         0         0         0         0         0         0         0
         0         0         0         0         0         0         0         0
         0         0         0         0         0         0         0         0
         0         0         0         0         0         0         0         0
         0         0         0         0         0         0         0         0
         0         0         0         0         0         0         0         0
         0         0         0         0         0         0         0         0
         0         0         0         0         0         0         0         0
         0         0         0         0         0         0         0         0
         0         0         0         0         0         0         0         0
         0         0         0         0         0         0         0         0
         0         0         0         0         0         0         0         0
         0         0         0         0         0         0         0         0
         0         0         0         0         0         0         0         0
         0         0         0         0         0         0         0         0
         0         0         0         0         0         0         0         0
         0         0         0         0         0         0         0         0
         0         0         0         0         0         0         0         0
         0         0         0         0         0         0         0         0
         0         0         0         0         0         0         0         0
         0         0         0         0         0         0         0         0
         0         0         0         0         0         0         0         0
         0         0         0         0         0         0         0         0
         0         0         0         0         0         0         0         0
         0         0         0         0         0         0         0         0
         0         0         0         0         0         0         0         0
         0         0         0         0         0         0         0         0
         0         0         0         0         0         0         0         0
         0         0         0         0         0         0         0         0
         0         0         0         0         0         0         0         0
         0         0         0         0         0         0         0         0
         0         0         0         0         0         0         0         0
         0         0         0         0         0         0         0         0
         0         0         0         0         0         0         0         0
         0         0         0         0         0         0         0         0
         0         0         0         0         0         0         0         0
         0         0         0         0         0         0         0         0
         0         0         0         0         0         0         0         0
         0         0         0         0         0         0         0         0
         0         0         0         0         0         0         0         0
         0         0         0         0         0         0         0         0
         0         0         0         0         0         0         0         0
         0         0         0         0         0         0         0         0
         0         0         0         0         0         0         0         0
         0         0         0         0         0         0         0         0
         0         0         0         0         0         0         0         0
         0         0         0         0         0         0         0         0
         0         0         0         0         0         0         0         0
         0         0         0         0         0         0         0         0
         0         0         0         0         0         0         0         0
         0         0         0         0         0         0         0         0
         0         0         0         0         0         0         0         0
         0         0         0         0         0         0         0         0
         0         0         0         0         0         0         0         0
         0         0         0         0         0         0         0         0
         0         0         0         0         0         0         0         0
         0         0         0         0         0         0         0         0
         0         0         0         0         0         0         0         0
         0         0         0         0         0         0         0         0
         0         0         0         0         0         0         0         0
         0         0         0         0         0         0         0         0
         0         0         0         0         0         0         0         0
         0         0         0         0         0         0         0         0
         0         0         0         0         0         0         0         0
         0         0         0         0         0         0         0         0
         0         0         0         0         0         0         0         0
         0         0         0         0         0         0         0         0
         0         0         0         0         0         0         0         0
         0         0         0         0         0         0         0         0
         0         0         0         0         0         0         0         0
         0         0         0         0         0         0         0         0
         0         0         0         0         0         0         0         0
         0         0         0         0         0         0         0         0
         0         0         0         0         0         0         0         0
         0         0         0         0         0         0         0         0
         0         0         0         0         0         0         0         0
         0         0         0         0         0         0         0         0
         0         0         0         0         0         0         0         0
         0         0         0         0         0         0         0         0
         0         0         0         0         0         0         0         0
         0         0         0         0         0         0         0         0
         0         0         0         0         0         0         0         0
         0         0         0         0         0         0         0         0
         0         0         0         0         0         0         0         0
         0         0         0         0         0         0         0         0
         0         0         0         0         0         0         0         0
         0         0         0         0         0         0         0         0
         0         0         0         0         0         0         0         0
         0         0         0         0         0         0         0         0
         0         0         0         0         0         0         0         0
         0         0         0         0         0         0         0         0
         0         0         0         0         0         0         0         0
         0         0         0         0         0         0         0         0
         0         0         0         0         0         0         0         0
         0         0         0         0         0         0         0         0
         0         0         0         0         0         0         0         0
         0         0         0         0         0         0         0         0
         0         0         0         0         0         0         0         0
         0         0         0         0         0         0         0         0
         0         0         0         0         0         0         0         0
         0         0         0         0         0         0         0         0
         0         0         0         0         0         0         0         0
         0         0         0         0         0         0         0         0
         0         0         0         0         0         0         0         0
         0         0         0         0         0         0         0         0
         0         0         0         0         0         0         0         0
         0         0         0         0         0         0         0         0
         0         0         0         0         0         0         0         0
         0         0         0         0         0         0         0         0
         0         0         0         0         0         0         0         0
         0         0         0         0         0         0         0         0
         0         0         0         0         0         0         0         0
         0         0         0         0         0         0         0         0
         0         0         0         0         0         0         0         0
         0         0         0         0         0         0         0         0
         0         0         0         0         0         0         0         0
         0         0         0         0         0         0         0         0
         0         0         0         0         0         0         0         0
         0         0         0         0         0         0         0         0
         0         0         0         0         0         0         0         0
         0         0         0         0         0         0         0         0
         0         0         0         0         0         0         0         0
         0         0         0         0         0         0         0         0
         0         0         0         0         0         0         0         0
         0         0         0         0         0         0         0         0
         0         0         0         0         0         0         0         0
         0         0         0         0         0         0         0         0
         0         0         0         0         0         0         0         0
         0         0         0         0         0         0         0         0
         0         0         0         0         0         0         0         0
         0         0         0         0         0         0         0         0
         0         0         0         0         0         0         0         0
         0         0         0         0         0         0         0         0
         0         0         0         0         0         0         0         0
         0         0         0         0         0         0         0         0
         0         0         0         0         0         0         0         0
         0         0         0         0         0         0         0         0
         0         0         0         0         0         0         0         0
         0         0         0         0         0         0         0         0
         0         0         0         0         0         0         0         0
         0         0         0         0         0         0         0         0
         0         0         0         0         0         0         0         0
         0         0         0         0         0         0         0         0
         0         0         0         0         0         0         0         0
         0         0         0         0         0         0         0         0
         0         0         0         0         0         0         0         0
         0         0         0         0         0         0         0         0
         0         0         0         0         0         0         0         0
         0         0         0         0         0         0         0         0
         0         0         0         0         0         0         0         0
         0         0         0         0         0         0         0         0
         0         0         0         0         0         0         0         0
         0         0         0         0         0         0         0         0
         0         0         0         0         0         0         0         0
         0         0         0         0         0         0         0         0
         0         0         0         0         0         0         0         0
         0         0         0         0         0         0         0         0
         0         0         0         0         0         0         0         0
         0         0         0         0         0         0         0         0
         0         0         0         0         0         0         0         0
         0         0         0         0         0         0         0         0
         0         0         0         0         0         0         0         0
         0         0         0         0         0         0         0         0
         0         0         0         0         0         0         0         0
         0         0         0         0         0         0         0         0
         0         0         0         0         0         0         0         0
         0         0         0         0         0         0         0         0
         0         0         0         0         0         0         0         0
         0         0         0         0         0         0         0         0
         0         0         0         0         0         0         0         0
         0         0         0         0         0         0         0         0
         0         0         0         0         0         0         0         0
         0         0         0         0         0         0         0         0
         0         0         0         0         0         0         0         0
         0         0         0         0         0         0         0         0
         0         0         0         0         0         0         0         0
         0         0         0         0         0         0         0         0
         0         0         0         0         0         0         0         0
         0         0         0         0         0         0         0         0
         0         0         0         0         0         0         0         0
         0         0         0         0         0         0         0         0
         0         0         0         0         0         0         0         0
         0         0         0         0         0         0         0         0
         0         0         0         0         0         0         0         0
         0         0         0         0         0         0         0         0
         0         0         0         0         0         0         0         0
         0         0         0         0         0         0         0         0
         0         0         0         0         0         0         0         0
         0         0         0         0         0         0         0         0
         0         0         0         0         0         0         0         0
         0         0         0         0         0         0         0         0
         0         0         0         0         0         0         0         0
         0         0         0         0         0         0         0         0
         0         0         0         0         0         0         0         0
         0         0         0         0         0         0         0         0
         0         0         0         0         0         0         0         0
         0         0         0         0         0         0         0         0
         0         0         0         0         0         0         0         0
         0         0         0         0         0         0         0         0
         0         0         0         0         0         0         0         0
         0         0         0         0         0         0         0         0
         0         0         0         0         0         0         0         0
         0         0         0         0         0         0         0         0
         0         0         0         0         0         0         0         0
         0         0         0         0         0         0         0         0
         0         0         0         0         0         0         0         0
         0         0         0         0         0         0         0         0
         0         0         0         0         0         0         0         0
         0         0         0         0         0         0         0         0
         0         0         0         0         0         0         0         0
         0         0         0         0         0         0         0         0
         0         0         0         0         0         0         0         0
         0         0         0         0         0         0         0         0
         0         0         0         0         0         0         0         0
         0         0         0         0         0         0         0         0
         0         0         0         0         0         0         0         0
         0         0         0         0         0         0         0         0
         0         0         0         0         0         0         0         0
         0         0         0         0         0         0         0         0
         0         0         0         0         0         0         0         0
         0         0         0         0         0         0         0         0
         0         0         0         0         0         0         0         0
         0         0         0         0         0         0         0         0
         0         0         0         0         0         0         0         0
         0         0         0         0         0         0         0         0
         0         0         0         0         0         0         0         0
         0         0         0         0         0         0         0         0
         0         0         0         0         0         0         0         0
         0         0         0         0         0         0         0         0
         0         0         0         0         0         0         0         0
         0         0         0         0         0         0         0         0
         0         0         0         0         0         0         0         0
         0         0         0         0         0         0         0         0
         0         0         0         0         0         0         0         0
         0         0         0         0         0         0         0         0
         0         0         0         0         0         0         0         0
         0         0         0         0         0         0         0         0
         0         0         0         0         0         0         0         0
         0         0         0         0         0         0         0         0
         0         0         0         0         0         0         0         0
         0         0         0         0         0         0         0         0
         0         0         0         0         0         0         0         0
         0         0         0         0         0         0         0         0
         0         0         0         0         0         0         0         0
         0         0         0         0         0         0         0         0
         0         0         0         0         0         0         0         0
         0         0         0         0         0         0         0         0
         0         0         0         0         0         0         0         0
         0         0         0         0         0         0         0         0
         0         0         0         0         0         0         0         0
         0         0         0         0         0         0         0         0
         0         0         0         0         0         0         0         0
         0         0         0         0         0         0         0         0
         0         0         0         0         0         0         0         0
         0         0         0         0         0         0         0         0
         0         0         0         0         0         0         0         0
         0         0         0         0         0         0         0         0
         0         0         0         0         0         0         0         0
         0         0         0         0         0         0         0         0
         0         0         0         0         0         0         0         0
         0         0         0         0         0         0         0         0
         0         0         0         0         0         0         0         0
         0         0         0         0         0         0         0         0
         0         0         0         0         0         0         0         0
         0         0         0         0         0         0         0         0
         0         0         0         0         0         0         0         0
         0         0         0         0         0         0         0         0
         0         0         0         0         0         0         0         0
         0         0         0         0         0         0         0         0
         0         0         0         0         0         0         0         0
         0         0         0         0         0         0         0         0
         0         0         0         0         0         0         0         0
         0         0         0         0         0         0         0         0
         0         0         0         0         0         0         0         0
         0         0         0         0         0         0         0         0
         0         0         0         0         0         0         0         0
         0         0         0         0         0         0         0         0
         0         0         0         0         0         0         0         0
         0         0         0         0         0         0         0         0
         0         0         0         0         0         0         0         0
         0         0         0         0         0         0         0         0
         0         0         0         0         0         0         0         0
         0         0         0         0         0         0         0         0
         0         0         0         0         0         0         0         0
         0         0         0         0         0         0         0         0
         0         0         0         0         0         0         0         0
         0         0         0         0         0         0         0         0
         0         0         0         0         0         0         0         0
         0         0         0         0         0         0         0         0
         0         0         0         0         0         0         0         0
         0         0         0         0         0         0         0         0
         0         0         0         0         0         0         0         0
         0         0         0         0         0         0         0         0
         0         0         0         0         0         0         0         0
         0         0         0         0         0         0         0         0
         0         0         0         0         0         0         0         0
         0         0         0         0         0         0         0         0
         0         0         0         0         0         0         0         0
         0         0         0         0         0         0         0         0
         0         0         0         0         0         0         0         0
         0         0         0         0         0         0         0         0
         0         0         0         0         0         0         0         0
         0         0         0         0         0         0         0         0
         0         0         0         0         0         0         0         0
         0         0         0         0         0         0         0         0
         0         0         0         0         0         0         0         0
         0         0         0         0         0         0         0         0
         0         0         0         0         0         0         0         0
         0         0         0         0         0         0         0         0
         0         0         0         0         0         0         0         0
         0         0         0         0         0         0         0         0
         0         0         0         0         0         0         0         0
         0         0         0         0         0         0         0         0
         0         0         0         0         0         0         0         0
         0         0         0         0         0         0         0         0
         0         0         0         0         0         0         0         0
         0         0         0         0         0         0         0         0
         0         0         0         0         0         0         0         0
         0         0         0         0         0         0         0         0
         0         0         0         0         0         0         0         0
         0         0         0         0         0         0         0         0
         0         0         0         0         0         0         0         0
         0         0         0         0         0         0         0         0
         0         0         0         0         0         0         0         0
         0         0         0         0         0         0         0         0
         0         0         0         0         0         0         0         0
         0         0         0         0         0         0         0         0
         0         0         0         0         0         0         0         0
         0         0         0         0         0         0         0         0
         0         0         0         0         0         0         0         0
         0         0         0         0         0         0         0         0
         0         0         0         0         0         0         0         0
         0         0         0         0         0         0         0         0
         0         0         0         0         0         0         0         0
         0         0         0         0         0         0         0         0
         0         0         0         0         0         0         0         0
         0         0         0         0         0         0         0         0
         0         0         0         0         0         0         0         0
         0         0         0         0         0         0         0         0
         0         0         0         0         0         0         0         0
         0         0         0         0         0         0         0         0
         0         0         0         0         0         0         0         0
         0         0         0         0         0         0         0         0
         0         0         0         0         0         0         0         0
         0         0         0         0         0         0         0         0
         0         0         0         0         0         0         0         0
         0         0         0         0         0         0         0         0
         0         0         0         0         0         0         0         0
         0         0         0         0         0         0         0         0
         0         0         0         0         0         0         0         0
         0         0         0         0         0         0         0         0
         0         0         0         0         0         0         0         0
         0         0         0         0         0         0         0         0
         0         0         0         0         0         0         0         0
         0         0         0         0         0         0         0         0
         0         0         0         0         0         0         0         0
         0         0         0         0         0         0         0         0
         0         0         0         0         0         0         0         0
         0         0         0         0         0         0         0         0
         0         0         0         0         0         0         0         0
         0         0         0         0         0         0         0         0
         0         0         0         0         0         0         0         0
         0         0         0         0         0         0         0         0
         0         0         0         0         0         0         0         0
         0         0         0         0         0         0         0         0
         0         0         0         0         0         0         0         0
         0         0         0         0         0         0         0         0
         0         0         0         0         0         0         0         0
         0         0         0         0         0         0         0         0
         0         0         0         0         0         0         0         0
         0         0         0         0         0         0         0         0
         0         0         0         0         0         0         0         0
         0         0         0         0         0         0         0         0
         0         0         0         0         0         0         0         0
         0         0         0         0         0         0         0         0
         0         0         0         0         0         0         0         0
         0         0         0         0         0         0         0         0
         0         0         0         0         0         0         0         0
         0         0         0         0         0         0         0         0
         0         0         0         0         0         0         0         0
         0         0         0         0         0         0         0         0
         0         0         0         0         0         0         0         0
         0         0         0         0         0         0         0         0
         0         0         0         0         0         0         0         0
         0         0         0         0         0         0         0         0
         0         0         0         0         0         0         0         0
         0         0         0         0         0         0         0         0
         0         0         0         0         0         0         0         0
         0         0         0         0         0         0         0         0
         0         0         0         0         0         0         0         0
         0         0         0         0         0         0         0         0
         0         0         0         0         0         0         0         0
         0         0         0         0         0         0         0         0
         0         0         0         0         0         0         0         0
         0         0         0         0         0         0         0         0
         0         0         0         0         0         0         0         0
         0         0         0         0         0         0         0         0
         0         0         0         0         0         0         0         0
         0         0         0         0         0         0         0         0
         0         0         0         0         0         0         0         0
         0         0         0         0         0         0         0         0
         0         0         0         0         0         0         0         0
         0         0         0         0         0         0         0         0
         0         0         0         0         0         0         0         0
         0         0         0         0         0         0         0         0
         0         0         0         0         0         0         0         0
         0         0         0         0         0         0         0         0
         0         0         0         0         0         0         0         0
         0         0         0         0         0         0         0         0
         0         0         0         0         0         0         0         0
         0         0         0         0         0         0         0         0
         0         0         0         0         0         0         0         0
         0         0         0         0         0         0         0         0
         0         0         0         0         0         0         0         0
         0         0         0         0         0         0         0         0
         0         0         0         0         0         0         0         0
         0         0         0         0         0         0         0         0
         0         0         0         0         0         0         0         0
         0         0         0         0         0         0         0         0
         0         0         0         0         0         0         0         0
         0         0         0         0         0         0         0         0
         0         0         0         0         0         0         0         0
         0         0         0         0         0         0         0         0
         0         0         0         0         0         0         0         0
         0         0         0         0         0         0         0         0
         0         0         0         0         0         0         0         0
         0         0         0         0         0         0         0         0
         0         0         0         0         0         0         0         0
         0         0         0         0         0         0         0         0
         0         0         0         0         0         0         0         0
         0         0         0         0         0         0         0         0
         0         0         0         0         0         0         0         0
         0         0         0         0         0         0         0         0
         0         0         0         0         0         0         0         0
         0         0         0         0         0         0         0         0
         0         0         0         0         0         0         0         0
         0         0         0         0         0         0         0         0
         0         0         0         0         0         0         0         0
         0         0         0         0         0         0         0         0
         0         0         0         0         0         0         0         0
         0         0         0         0         0         0         0         0
         0         0         0         0         0         0         0         0
         0         0         0         0         0         0         0         0
         0         0         0         0         0         0         0         0
         0         0         0         0         0         0         0         0
         0         0         0         0         0         0         0         0
         0         0         0         0         0         0         0         0
         0         0         0         0         0         0         0         0
         0         0         0         0         0         0         0         0
         0         0         0         0         0         0         0         0
         0         0         0         0         0         0         0         0
         0         0         0         0         0         0         0         0
         0         0         0         0         0         0         0         0
         0         0         0         0         0         0         0         0
         0         0         0         0         0         0         0         0
         0         0         0         0         0         0         0         0
         0         0         0         0         0         0         0         0
         0         0         0         0         0         0         0         0
         0         0         0         0         0         0         0         0
         0         0         0         0         0         0         0         0
         0         0         0         0         0         0         0         0
         0         0         0         0         0         0         0         0
         0         0         0         0         0         0         0         0
         0         0         0         0         0         0         0         0
         0         0         0         0         0         0         0         0
         0         0         0         0         0         0         0         0
         0         0         0         0         0         0         0         0
         0         0         0         0         0         0         0         0
         0         0         0         0         0         0         0         0
         0         0         0         0         0         0         0         0
         0         0         0         0         0         0         0         0
         0         0         0         0         0         0         0         0
         0         0         0         0         0         0         0         0
         0         0         0         0         0         0         0         0
         0         0         0         0         0         0         0         0
         0         0         0         0         0         0         0         0
         0         0         0         0         0         0         0         0
         0         0         0         0         0         0         0         0
         0         0         0         0         0         0         0         0
         0         0         0         0         0         0         0         0
         0         0         0         0         0         0         0         0
         0         0         0         0         0         0         0         0
         0         0         0         0         0         0         0         0
         0         0         0         0         0         0         0         0
         0         0         0         0         0         0         0         0
         0         0         0         0         0         0         0         0
         0         0         0         0         0         0         0         0
         0         0         0         0         0         0         0         0
         0         0         0         0         0         0         0         0
         0         0         0         0         0         0         0         0
         0         0         0         0         0         0         0         0
         0         0         0         0         0         0         0         0
         0         0         0         0         0         0         0         0
         0         0         0         0         0         0         0         0
         0         0         0         0         0         0         0         0
         0         0         0         0         0         0         0         0
         0         0         0         0         0         0         0         0
         0         0         0         0         0         0         0         0
         0         0         0         0         0         0         0         0
         0         0         0         0         0         0         0         0
         0         0         0         0         0         0         0         0
         0         0         0         0         0         0         0         0
         0         0         0         0         0         0         0         0
         0         0         0         0         0         0         0         0
         0         0         0         0         0         0         0         0
         0         0         0         0         0         0         0         0
         0         0         0         0         0         0         0         0
         0         0         0         0         0         0         0         0
         0         0         0         0         0         0         0         0
         0         0         0         0         0         0         0         0
         0         0         0         0         0         0         0         0
         0         0         0         0         0         0         0         0
         0         0         0         0         0         0         0         0
         0         0         0         0         0         0         0         0
         0         0         0         0         0         0         0         0
         0         0         0         0         0         0         0         0
         0         0         0         0         0         0         0         0
         0         0         0         0         0         0         0         0
         0         0         0         0         0         0         0         0
         0         0         0         0         0         0         0         0
         0         0         0         0         0         0         0         0
         0         0         0         0         0         0         0         0
         0         0         0         0         0         0         0         0
         0         0         0         0         0         0         0         0
         0         0         0         0         0         0         0         0
         0         0         0         0         0         0         0         0
         0         0         0         0         0         0         0         0
         0         0         0         0         0         0         0         0
         0         0         0         0         0         0         0         0
         0         0         0         0         0         0         0         0
         0         0         0         0         0         0         0         0
         0         0         0         0         0         0         0         0
         0         0         0         0         0         0         0         0
         0         0         0         0         0         0         0         0
         0         0         0         0         0         0         0         0
         0         0         0         0         0         0         0         0
         0         0         0         0         0         0         0         0
         0         0         0         0         0         0         0         0
         0         0         0         0         0         0         0         0
         0         0         0         0         0         0         0         0
         0         0         0         0         0         0         0         0
         0         0         0         0         0         0         0         0
         0         0         0         0         0         0         0         0
         0         0         0         0         0         0         0         0
         0         0         0         0         0         0         0         0
         0         0         0         0         0         0         0         0
         0         0         0         0         0         0         0         0
         0         0         0         0         0         0         0         0
         0         0         0         0         0         0         0         0
         0         0         0         0         0         0         0         0
         0         0         0         0         0         0         0         0
         0         0         0         0         0         0         0         0
         0         0         0         0         0         0         0         0
         0         0         0         0         0         0         0         0
         0         0         0         0         0         0         0         0
         0         0         0         0         0         0         0         0
         0         0         0         0         0         0         0         0
         0         0         0         0         0         0         0         0
         0         0         0         0         0         0         0         0
         0         0         0         0         0         0         0         0
         0         0         0         0         0         0         0         0
         0         0         0         0         0         0         0         0
         0         0         0         0         0         0         0         0
         0         0         0         0         0         0         0         0
         0         0         0         0         0         0         0         0
         0         0         0         0         0         0         0         0
         0         0         0         0         0         0         0         0
         0         0         0         0         0         0         0         0
         0         0         0         0         0         0         0         0
         0         0         0         0         0         0         0         0
         0         0         0         0         0         0         0         0
         0         0         0         0         0         0         0         0
         0         0         0         0         0         0         0         0
         0         0         0         0         0         0         0         0
         0         0         0         0         0         0         0         0
         0         0         0         0         0         0         0         0
         0         0         0         0         0         0         0         0
         0         0         0         0         0         0         0         0
         0         0         0         0         0         0         0         0
         0         0         0         0         0         0         0         0
         0         0         0         0         0         0         0         0
         0         0         0         0         0         0         0         0
         0         0         0         0         0         0         0         0
         0         0         0         0         0         0         0         0
         0         0         0         0         0         0         0         0
         0         0         0         0         0         0         0         0
         0         0         0         0         0         0         0         0
         0         0         0         0         0         0         0         0
         0         0         0         0         0         0         0         0
         0         0         0         0         0         0         0         0
         0         0         0         0         0         0         0         0
         0         0         0         0         0         0         0         0
         0         0         0         0         0         0         0         0
         0         0         0         0         0         0         0         0
         0         0         0         0         0         0         0         0
         0         0         0         0         0         0         0         0
         0         0         0         0         0         0         0         0
         0         0         0         0         0         0         0         0
         0         0         0         0         0         0         0         0
         0         0         0         0         0         0         0         0
         0         0         0         0         0         0         0         0
         0         0         0         0         0         0         0         0
         0         0         0         0         0         0         0         0
         0         0         0         0         0         0         0         0
         0         0         0         0         0         0         0         0
         0         0         0         0         0         0         0         0
         0         0         0         0         0         0         0         0
         0         0         0         0         0         0         0         0
         0         0         0         0         0         0         0         0
         0         0         0         0         0         0         0         0
         0         0         0         0         0         0         0         0
         0         0         0         0         0         0         0         0
         0         0         0         0         0         0         0         0
         0         0         0         0         0         0         0         0
         0         0         0         0         0         0         0         0
         0         0         0         0         0         0         0         0
         0         0         0         0         0         0         0         0
         0         0         0         0         0         0         0         0
         0         0         0         0         0         0         0         0
         0         0         0         0         0         0         0         0
         0         0         0         0         0         0         0         0
         0         0         0         0         0         0         0         0
         0         0         0         0         0         0         0         0
         0         0         0         0         0         0         0         0
         0         0         0         0         0         0         0         0
         0         0         0         0         0         0         0         0
         0         0         0         0         0         0         0         0
         0         0         0         0         0         0         0         0
         0         0         0         0         0         0         0         0
         0         0         0         0         0         0         0         0
         0         0         0         0         0         0         0         0
         0         0         0         0         0         0         0         0
         0         0         0         0         0         0         0         0
         0         0         0         0         0         0         0         0
         0         0         0         0         0         0         0         0
         0         0         0         0         0         0         0         0
         0         0         0         0         0         0         0         0
         0         0         0         0         0         0         0         0
         0         0         0         0         0         0         0         0
         0         0         0         0         0         0         0         0
         0         0         0         0         0         0         0         0
         0         0         0         0         0         0         0         0
         0         0         0         0         0         0         0         0
         0         0         0         0         0         0         0         0
         0         0         0         0         0         0         0         0
         0         0         0         0         0         0         0         0
         0         0         0         0         0         0         0         0
         0         0         0         0         0         0         0         0
         0         0         0         0         0         0         0         0
         0         0         0         0         0         0         0         0
         0         0         0         0         0         0         0         0
         0         0         0         0         0         0         0         0
         0         0         0         0         0         0         0         0
         0         0         0         0         0         0         0         0
         0         0         0         0         0         0         0         0
         0         0         0         0         0         0         0         0
         0         0         0         0         0         0         0         0
         0         0         0         0         0         0         0         0
         0         0         0         0         0         0         0         0
         0         0         0         0         0         0         0         0
         0         0         0         0         0         0         0         0
         0         0         0         0         0         0         0         0
         0         0         0         0         0         0         0         0
         0         0         0         0         0         0         0         0
         0         0         0         0         0         0         0         0
         0         0         0         0         0         0         0         0
         0         0         0         0         0         0         0         0
         0         0         0         0         0         0         0         0
         0         0         0         0         0         0         0         0
         0         0         0         0         0         0         0         0
         0         0         0         0         0         0         0         0
         0         0         0         0         0         0         0         0
         0         0         0         0         0         0         0         0
         0         0         0         0         0         0         0         0
         0         0         0         0         0         0         0         0
         0         0         0         0         0         0         0         0
         0         0         0         0         0         0         0         0
         0         0         0         0         0         0         0         0
         0         0         0         0         0         0         0         0
         0         0         0         0         0         0         0         0
         0         0         0         0         0         0         0         0
         0         0         0         0         0         0         0         0
         0         0         0         0         0         0         0         0
         0         0         0         0         0         0         0         0
         0         0         0         0         0         0         0         0
         0         0         0         0         0         0         0         0
         0         0         0         0         0         0         0         0
         0         0         0         0         0         0         0         0
         0         0         0         0         0         0         0         0
         0         0         0         0         0         0         0         0
         0         0         0         0         0         0         0         0
         0         0         0         0         0         0         0         0
         0         0         0         0         0         0         0         0
         0         0         0         0         0         0         0         0
         0         0         0         0         0         0         0         0
         0         0         0         0         0         0         0         0
         0         0         0         0         0         0         0         0
         0         0         0         0         0         0         0         0
         0         0         0         0         0         0         0         0
         0         0         0         0         0         0         0         0
         0         0         0         0         0         0         0         0
         0         0         0         0         0         0         0         0
         0         0         0         0         0         0         0         0
         0         0         0         0         0         0         0         0
         0         0         0         0         0         0         0         0
         0         0         0         0         0         0         0         0
         0         0         0         0         0         0         0         0
         0         0         0         0         0         0         0         0
         0         0         0         0         0         0         0         0
         0         0         0         0         0         0         0         0
         0         0         0         0         0         0         0         0
         0         0         0         0         0         0         0         0
         0         0         0         0         0         0         0         0
         0         0         0         0         0         0         0         0
         0         0         0         0         0         0         0         0
         0         0         0         0         0         0         0         0
         0         0         0         0         0         0         0         0
         0         0         0         0         0         0         0         0
         0         0         0         0         0         0         0         0
         0         0         0         0         0         0         0         0
         0         0         0         0         0         0         0         0
         0         0         0         0         0         0         0         0
         0         0         0         0         0         0         0         0
         0         0         0         0         0         0         0         0
         0         0         0         0         0         0         0         0
         0         0         0         0         0         0         0         0
         0         0         0         0         0         0         0         0
         0         0         0         0         0         0         0         0
         0         0         0         0         0         0         0         0
         0         0         0         0         0         0         0         0
         0         0         0         0         0         0         0         0
         0         0         0         0         0         0         0         0
         0         0         0         0         0         0         0         0
         0         0         0         0         0         0         0         0
         0         0         0         0         0         0         0         0
         0         0         0         0         0         0         0         0
         0         0         0         0         0         0         0         0
         0         0         0         0         0         0         0         0
         0         0         0         0         0         0         0         0
         0         0         0         0         0         0         0         0
         0         0         0         0         0         0         0         0
         0         0         0         0         0         0         0         0
         0         0         0         0         0         0         0         0
         0         0         0         0         0         0         0         0
         0         0         0         0         0         0         0         0
         0         0         0         0         0         0         0         0
         0         0         0         0         0         0         0         0
         0         0         0         0         0         0         0         0
         0         0         0         0         0         0         0         0
         0         0         0         0         0         0         0         0
         0         0         0         0         0         0         0         0
         0         0         0         0         0         0         0         0
         0         0         0         0         0         0         0         0
         0         0         0         0         0         0         0         0
         0         0         0         0         0         0         0         0
         0         0         0         0         0         0         0         0
         0         0         0         0         0         0         0         0
         0         0         0         0         0         0         0         0
         0         0         0         0         0         0         0         0
         0         0         0         0         0         0         0         0
         0         0         0         0         0         0         0         0
         0         0         0         0         0         0         0         0
         0         0         0         0         0         0         0         0
         0         0         0         0         0         0         0         0
         0         0         0         0         0         0         0         0
         0         0         0         0         0         0         0         0
         0         0         0         0         0         0         0         0
         0         0         0         0         0         0         0         0
         0         0         0         0         0         0         0         0
         0         0         0         0         0         0         0         0
         0         0         0         0         0         0         0         0
         0         0         0         0         0         0         0         0
         0         0         0         0         0         0         0         0
         0         0         0         0         0         0         0         0
         0         0         0         0         0         0         0         0
         0         0         0         0         0         0         0         0
         0         0         0         0         0         0         0         0
         0         0         0         0         0         0         0         0
         0         0         0         0         0         0         0         0
         0         0         0         0         0         0         0         0
         0         0         0         0         0         0         0         0
         0         0         0         0         0         0         0         0
         0         0         0         0         0         0         0         0
         0         0         0         0         0         0         0         0
         0         0         0         0         0         0         0         0
         0         0         0         0         0         0         0         0
         0         0         0         0         0         0         0         0
         0         0         0         0         0         0         0         0
         0         0         0         0         0         0         0         0
         0         0         0         0         0         0         0         0
         0         0         0         0         0         0         0         0
         0         0         0         0         0         0         0         0
         0         0         0         0         0         0         0         0
         0         0         0         0         0         0         0         0
         0         0         0         0         0         0         0         0
         0         0         0         0         0         0         0         0
         0         0         0         0         0         0         0         0
         0         0         0         0         0         0         0         0
         0         0         0         0         0         0         0         0
         0         0         0         0         0         0         0         0
         0         0         0         0         0         0         0         0
         0         0         0         0         0         0         0         0
         0         0         0         0         0         0         0         0
         0         0         0         0         0         0         0         0
         0         0         0         0         0         0         0         0
         0         0         0         0         0         0         0         0
         0         0         0         0         0         0         0         0
         0         0         0         0         0         0         0         0
         0         0         0         0         0         0         0         0
         0         0         0         0         0         0         0         0
         0         0         0         0         0         0         0         0
         0         0         0         0         0         0         0         0
         0         0         0         0         0         0         0         0
         0         0         0         0         0         0         0         0
         0         0         0         0         0         0         0         0
         0         0         0         0         0         0         0         0
         0         0         0         0         0         0         0         0
         0         0         0         0         0         0         0         0
         0         0         0         0         0         0         0         0
         0         0         0         0         0         0         0         0
         0         0         0         0         0         0         0         0
         0         0         0         0         0         0         0         0
         0         0         0         0         0         0         0         0
         0         0         0         0         0         0         0         0
         0         0         0         0         0         0         0         0
         0         0         0         0         0         0         0         0
         0         0         0         0         0         0         0         0
         0         0         0         0         0         0         0         0
         0         0         0         0         0         0         0         0
         0         0         0         0         0         0         0         0
         0         0         0         0         0         0         0         0
         0         0         0         0         0         0         0         0
         0         0         0         0         0         0         0         0
         0         0         0         0         0         0         0         0
         0         0         0         0         0         0         0         0
         0         0         0         0         0         0         0         0
         0         0         0         0         0         0         0         0
         0         0         0         0         0         0         0         0
         0         0         0         0         0         0         0         0
         0         0         0         0         0         0         0         0
         0         0         0         0         0         0         0         0
         0         0         0         0         0         0         0         0
         0         0         0         0         0         0         0         0
         0         0         0         0         0         0         0         0
         0         0         0         0         0         0         0         0
         0         0         0         0         0         0         0         0
         0         0         0         0         0         0         0         0
         0         0         0         0         0         0         0         0
         0         0         0         0         0         0         0         0
         0         0         0         0         0         0         0         0
         0         0         0         0         0         0         0         0
         0         0         0         0         0         0         0         0
         0         0         0         0         0         0         0         0
         0         0         0         0         0         0         0         0
         0         0         0         0         0         0         0         0
         0         0         0         0         0         0         0         0
         0         0         0         0         0         0         0         0
         0         0         0         0         0         0         0         0
         0         0         0         0         0         0         0         0
         0         0         0         0         0         0         0         0
         0         0         0         0         0         0         0         0
         0         0         0         0         0         0         0         0
         0         0         0         0         0         0         0         0
         0         0         0         0         0         0         0         0
         0         0         0         0         0         0         0         0
         0         0         0         0         0         0         0         0
         0         0         0         0         0         0         0         0
         0         0         0         0         0         0         0         0
         0         0         0         0         0         0         0         0
         0         0         0         0         0         0         0         0
         0         0         0         0         0         0         0         0
         0         0         0         0         0         0         0         0
         0         0         0         0         0         0         0         0
         0         0         0         0         0         0         0         0
         0         0         0         0         0         0         0         0
         0         0         0         0         0         0         0         0
         0         0         0         0         0         0         0         0
         0         0         0         0         0         0         0         0
         0         0         0         0         0         0         0         0
         0         0         0         0         0         0         0         0
         0         0         0         0         0         0         0         0
         0         0         0         0         0         0         0         0
         0         0         0         0         0         0         0         0
         0         0         0         0         0         0         0         0
         0         0         0         0         0         0         0         0
         0         0         0         0         0         0         0         0
         0         0         0         0         0         0         0         0
         0         0         0         0         0         0         0         0
         0         0         0         0         0         0         0         0
         0         0         0         0         0         0         0         0
         0         0         0         0         0         0         0         0
         0         0         0         0         0         0         0         0
         0         0         0         0         0         0         0         0
         0         0         0         0         0         0         0         0
         0         0         0         0         0         0         0         0
         0         0         0         0         0         0         0         0
         0         0         0         0         0         0         0         0
         0         0         0         0         0         0         0         0
         0         0         0         0         0         0         0         0
         0         0         0         0         0         0         0         0
         0         0         0         0         0         0         0         0
         0         0         0         0         0         0         0         0
         0         0         0         0         0         0         0         0
         0         0         0         0         0         0         0         0
         0         0         0         0         0         0         0         0
         0         0         0         0         0         0         0         0
         0         0         0         0         0         0         0         0
         0         0         0         0         0         0         0         0
         0         0         0         0         0         0         0         0
         0         0         0         0         0         0         0         0
         0         0         0         0         0         0         0         0
         0         0         0         0         0         0         0         0
         0         0         0         0         0         0         0         0
         0         0         0         0         0         0         0         0
         0         0         0         0         0         0         0         0
         0         0         0         0         0         0         0         0
         0         0         0         0         0         0         0         0
         0         0         0         0         0         0         0         0
         0         0         0         0         0         0         0         0
         0         0         0         0         0         0         0         0
         0         0         0         0         0         0         0         0
         0         0         0         0         0         0         0         0
         0         0         0         0         0         0         0         0
         0         0         0         0         0         0         0         0
         0         0         0         0         0         0         0         0
         0         0         0         0         0         0         0         0
         0         0         0         0         0         0         0         0
         0         0         0         0         0         0         0         0
         0         0         0         0         0         0         0         0
         0         0         0         0         0         0         0         0
         0         0         0         0         0         0         0         0
         0         0         0         0         0         0         0         0
         0         0         0         0         0         0         0         0
         0         0         0         0         0         0         0         0
         0         0         0         0         0         0         0         0
         0         0         0         0         0         0         0         0
         0         0         0         0         0         0         0         0
         0         0         0         0         0         0         0         0
         0         0         0         0         0         0         0         0
         0         0         0         0         0         0         0         0
         0         0         0         0         0         0         0         0
         0         0         0         0         0         0         0         0
         0         0         0         0         0         0         0         0
         0         0         0         0         0         0         0         0
         0         0         0         0         0         0         0         0
         0         0         0         0         0         0         0         0
         0         0         0         0         0         0         0         0
         0         0         0         0         0         0         0         0
         0         0         0         0         0         0         0         0
         0         0         0         0         0         0         0         0
         0         0         0         0         0         0         0         0
         0         0         0         0         0         0         0         0
         0         0         0         0         0         0         0         0
         0         0         0         0         0         0         0         0
         0         0         0         0         0         0         0         0
         0         0         0         0         0         0         0         0
         0         0         0         0         0         0         0         0
         0         0         0         0         0         0         0         0
         0         0         0         0         0         0         0         0
         0         0         0         0         0         0         0         0
         0         0         0         0         0         0         0         0
         0         0         0         0         0         0         0         0
         0         0         0         0         0         0         0         0
         0         0         0         0         0         0         0         0
         0         0         0         0         0         0         0         0
         0         0         0         0         0         0         0         0
         0         0         0         0         0         0         0         0
         0         0         0         0         0         0         0         0
         0         0         0         0         0         0         0         0
         0         0         0         0         0         0         0         0
         0         0         0         0         0         0         0         0
         0         0         0         0         0         0         0         0
         0         0         0         0         0         0         0         0
         0         0         0         0         0         0         0         0
         0         0         0         0         0         0         0         0
         0         0         0         0         0         0         0         0
         0         0         0         0         0         0         0         0
         0         0         0         0         0         0         0         0
         0         0         0         0         0         0         0         0
         0         0         0         0         0         0         0         0
         0         0         0         0         0         0         0         0
         0         0         0         0         0         0         0         0
         0         0         0         0         0         0         0         0
         0         0         0         0         0         0         0         0
         0         0         0         0         0         0         0         0
         0         0         0         0         0         0         0         0
         0         0         0         0         0         0         0         0
         0         0         0         0         0         0         0         0
         0         0         0         0         0         0         0         0
         0         0         0         0         0         0         0         0
         0         0         0         0         0         0         0         0
         0         0         0         0         0         0         0         0
         0         0         0         0         0         0         0         0
         0         0         0         0         0         0         0         0
         0         0         0         0         0         0         0         0
         0         0         0         0         0         0         0         0
         0         0         0         0         0         0         0         0
         0         0         0         0         0         0         0         0
         0         0         0         0         0         0         0         0
         0         0         0         0         0         0         0         0
         0         0         0         0         0         0         0         0
         0         0         0         0         0         0         0         0
         0         0         0         0         0         0         0         0
         0         0         0         0         0         0         0         0
         0         0         0         0         0         0         0         0
         0         0         0         0         0         0         0         0
         0         0         0         0         0         0         0         0
         0         0         0         0         0         0         0         0
         0         0         0         0         0         0         0         0
         0         0         0         0         0         0         0         0
         0         0         0         0         0         0         0         0
         0         0         0         0         0         0         0         0
         0         0         0         0         0         0         0         0
         0         0         0         0         0         0         0         0
         0         0         0         0         0         0         0         0
         0         0         0         0         0         0         0         0
         0         0         0         0         0         0         0         0
         0         0         0         0         0         0         0         0
         0         0         0         0         0         0         0         0
         0         0         0         0         0         0         0         0
         0         0         0         0         0         0         0         0
         0         0         0         0         0         0         0         0
         0         0         0         0         0         0         0         0
         0         0         0         0         0         0         0         0
         0         0         0         0         0         0         0         0
         0         0         0         0         0         0         0         0
         0         0         0         0         0         0         0         0
         0         0         0         0         0         0         0         0
         0         0         0         0         0         0         0         0
         0         0         0         0         0         0         0         0
         0         0         0         0         0         0         0         0
         0         0         0         0         0         0         0         0
         0         0         0         0         0         0         0         0
         0         0         0         0         0         0         0         0
         0         0         0         0         0         0         0         0
         0         0         0         0         0         0         0         0
         0         0         0         0         0         0         0         0
         0         0         0         0         0         0         0         0
         0         0         0         0         0         0         0         0
         0         0         0         0         0         0         0         0
         0         0         0         0         0         0         0         0
         0         0         0         0         0         0         0         0
         0         0         0         0         0         0         0         0
         0         0         0         0         0         0         0         0
         0         0         0         0         0         0         0         0
         0         0         0         0         0         0         0         0
         0         0         0         0         0         0         0         0
         0         0         0         0         0         0         0         0
         0         0         0         0         0         0         0         0
         0         0         0         0         0         0         0         0
         0         0         0         0         0         0         0         0
         0         0         0         0         0         0         0         0
         0         0         0         0         0         0         0         0
         0         0         0         0         0         0         0         0
         0         0         0         0         0         0         0         0
         0         0         0         0         0         0         0         0
         0         0         0         0         0         0         0         0
         0         0         0         0         0         0         0         0
         0         0         0         0         0         0         0         0
         0         0         0         0         0         0         0         0
         0         0         0         0         0         0         0         0
         0         0         0         0         0         0         0         0
         0         0         0         0         0         0         0         0
         0         0         0         0         0         0         0         0
         0         0         0         0         0         0         0         0
         0         0         0         0         0         0         0         0
         0         0         0         0         0         0         0         0
         0         0         0         0         0         0         0         0
         0         0         0         0         0         0         0         0
         0         0         0         0         0         0         0         0
         0         0         0         0         0         0         0         0
         0         0         0         0         0         0         0         0
         0         0         0         0         0         0         0         0
         0         0         0         0         0         0         0         0
         0         0         0         0         0         0         0         0
         0         0         0         0         0         0         0         0
         0         0         0         0         0         0         0         0
         0         0         0         0         0         0         0         0
         0         0         0         0         0         0         0         0
         0         0         0         0         0         0         0         0
         0         0         0         0         0         0         0         0
         0         0         0         0         0         0         0         0
         0         0         0         0         0         0         0         0
         0         0         0         0         0         0         0         0
         0         0         0         0         0         0         0         0
         0         0         0         0         0         0         0         0
         0         0         0         0         0         0         0         0
         0         0         0         0         0         0         0         0
         0         0         0         0         0         0         0         0
         0         0         0         0         0         0         0         0
         0         0         0         0         0         0         0         0
         0         0         0         0         0         0         0         0
         0         0         0         0         0         0         0         0
         0         0         0         0         0         0         0         0
         0         0         0         0         0         0         0         0
         0         0         0         0         0         0         0         0
         0         0         0         0         0         0         0         0
         0         0         0         0         0         0         0         0
         0         0         0         0         0         0         0         0
         0         0         0         0         0         0         0         0
         0         0         0         0         0         0         0         0
         0         0         0         0         0         0         0         0
         0         0         0         0         0         0         0         0
         0         0         0         0         0         0         0         0
         0         0         0         0         0         0         0         0
         0         0         0         0         0         0         0         0
         0         0         0         0         0         0         0         0
         0         0         0         0         0         0         0         0
         0         0         0         0         0         0         0         0
         0         0         0         0         0         0         0         0
         0         0         0         0         0         0         0         0
         0         0         0         0         0         0         0         0
         0         0         0         0         0         0         0         0
         0         0         0         0         0         0         0         0
         0         0         0         0         0         0         0         0
         0         0         0         0         0         0         0         0
         0         0         0         0         0         0         0         0
         0         0         0         0         0         0         0         0
         0         0         0         0         0         0         0         0
         0         0         0         0         0         0         0         0
         0         0         0         0         0         0         0         0
         0         0         0         0         0         0         0         0
         0         0         0         0         0         0         0         0
         0         0         0         0         0         0         0         0
         0         0         0         0         0         0         0         0
         0         0         0         0         0         0         0         0
         0         0         0         0         0         0         0         0
         0         0         0         0         0         0         0         0
         0         0         0         0         0         0         0         0
         0         0         0         0         0         0         0         0
         0         0         0         0         0         0         0         0
         0         0         0         0         0         0         0         0
         0         0         0         0         0         0         0         0
         0         0         0         0         0         0         0         0
         0         0         0         0         0         0         0         0
         0         0         0         0         0         0         0         0
         0         0         0         0         0         0         0         0
         0         0         0         0         0         0         0         0
         0         0         0         0         0         0         0         0
         0         0         0         0         0         0         0         0
         0         0         0         0         0         0         0         0
         0         0         0         0         0         0         0         0
         0         0         0         0         0         0         0         0
         0         0         0         0         0         0         0         0
         0         0         0         0         0         0         0         0
         0         0         0         0         0         0         0         0
         0         0         0         0         0         0         0         0
         0         0         0         0         0         0         0         0
         0         0         0         0         0         0         0         0
         0         0         0         0         0         0         0         0
         0         0         0         0         0         0         0         0
         0         0         0         0         0         0         0         0
         0         0         0         0         0         0         0         0
         0         0         0         0         0         0         0         0
         0         0         0         0         0         0         0         0
         0         0         0         0         0         0         0         0
         0         0         0         0         0         0         0         0
         0         0         0         0         0         0         0         0
         0         0         0         0         0         0         0         0
         0         0         0         0         0         0         0         0
         0         0         0         0         0         0         0         0
         0         0         0         0         0         0         0         0
         0         0         0         0         0         0         0         0
         0         0         0         0         0         0         0         0
         0         0         0         0         0         0         0         0
         0         0         0         0         0         0         0         0
         0         0         0         0         0         0         0         0
         0         0         0         0         0         0         0         0
         0         0         0         0         0         0         0         0
         0         0         0         0         0         0         0         0
         0         0         0         0         0         0         0         0
         0         0         0         0         0         0         0         0
         0         0         0         0         0         0         0         0
         0         0         0         0         0         0         0         0
         0         0         0         0         0         0         0         0
         0         0         0         0         0         0         0         0
         0         0         0         0         0         0         0         0
         0         0         0         0         0         0         0         0
         0         0         0         0         0         0         0         0
         0         0         0         0         0         0         0         0
         0         0         0         0         0         0         0         0
         0         0         0         0         0         0         0         0
         0         0         0         0         0         0         0         0
         0         0         0         0         0         0         0         0
         0         0         0         0         0         0         0         0
         0         0         0         0         0         0         0         0
         0         0         0         0         0         0         0         0
         0         0         0         0         0         0         0         0
         0         0         0         0         0         0         0         0
         0         0         0         0         0         0         0         0
         0         0         0         0         0         0         0         0
         0         0         0         0         0         0         0         0
         0         0         0         0         0         0         0         0
         0         0         0         0         0         0         0         0
         0         0         0         0         0         0         0         0
         0         0         0         0         0         0         0         0
         0         0         0         0         0         0         0         0
         0         0         0         0         0         0         0         0
         0         0         0         0         0         0         0         0
         0         0         0         0         0         0         0         0
         0         0         0         0         0         0         0         0
         0         0         0         0         0         0         0         0
         0         0         0         0         0         0         0         0
         0         0         0         0         0         0         0         0
         0         0         0         0         0         0         0         0
         0         0         0         0         0         0         0         0
         0         0         0         0         0         0         0         0
         0         0         0         0         0         0         0         0
         0         0         0         0         0         0         0         0
         0         0         0         0         0         0         0         0
         0         0         0         0         0         0         0         0
         0         0         0         0         0         0         0         0
         0         0         0         0         0         0         0         0
         0         0         0         0         0         0         0         0
         0         0         0         0         0         0         0         0
         0         0         0         0         0         0         0         0
         0         0         0         0         0         0         0         0
         0         0         0         0         0         0         0         0
         0         0         0         0         0         0         0         0
         0         0         0         0         0         0         0         0
         0         0         0         0         0         0         0         0
         0         0         0         0         0         0         0         0
         0         0         0         0         0         0         0         0
         0         0         0         0         0         0         0         0
         0         0         0         0         0         0         0         0
         0         0         0         0         0         0         0         0
         0         0         0         0         0         0         0         0
         0         0         0         0         0         0         0         0
         0         0         0         0         0         0         0         0
         0         0         0         0         0         0         0         0
         0         0         0         0         0         0         0         0
         0         0         0         0         0         0         0         0
         0         0         0         0         0         0         0         0
         0         0         0         0         0         0         0         0
         0         0         0         0         0         0         0         0
         0         0         0         0         0         0         0         0
         0         0         0         0         0         0         0         0
         0         0         0         0         0         0         0         0
         0         0         0         0         0         0         0         0
         0         0         0         0         0         0         0         0
         0         0         0         0         0         0         0         0
         0         0         0         0         0         0         0         0
         0         0         0         0         0         0         0         0
         0         0         0         0         0         0         0         0
         0         0         0         0         0         0         0         0
         0         0         0         0         0         0         0         0
         0         0         0         0         0         0         0         0
         0         0         0         0         0         0         0         0
         0         0         0         0         0         0         0         0
         0         0         0         0         0         0         0         0
         0         0         0         0         0         0         0         0
         0         0         0         0         0         0         0         0
         0         0         0         0         0         0         0         0
         0         0         0         0         0         0         0         0
         0         0         0         0         0         0         0         0
         0         0         0         0         0         0         0         0
         0         0         0         0         0         0         0         0
         0         0         0         0         0         0         0         0
         0         0         0         0         0         0         0         0
         0         0         0         0         0         0         0         0
         0         0         0         0         0         0         0         0
         0         0         0         0         0         0         0         0
         0         0         0         0         0         0         0         0
         0         0         0         0         0         0         0         0
         0         0         0         0         0         0         0         0
         0         0         0         0         0         0         0         0
         0         0         0         0         0         0         0         0
         0         0         0         0         0         0         0         0
         0         0         0         0         0         0         0         0
         0         0         0         0         0         0         0         0
         0         0         0         0         0         0         0         0
         0         0         0         0         0         0         0         0
         0         0         0         0         0         0         0         0
         0         0         0         0         0         0         0         0
         0         0         0         0         0         0         0         0
         0         0         0         0         0         0         0         0
         0         0         0         0         0         0         0         0
         0         0         0         0         0         0         0         0
         0         0         0         0         0         0         0         0
         0         0         0         0         0         0         0         0
         0         0         0         0         0         0         0         0
         0         0         0         0         0         0         0         0
         0         0         0         0         0         0         0         0
         0         0         0         0         0         0         0         0
         0         0         0         0         0         0         0         0
         0         0         0         0         0         0         0         0
         0         0         0         0         0         0         0         0
         0         0         0         0         0         0         0         0
         0         0         0         0         0         0         0         0
         0         0         0         0         0         0         0         0
         0         0         0         0         0         0         0         0
         0         0         0         0         0         0         0         0
         0         0         0         0         0         0         0         0
         0         0         0         0         0         0         0         0
         0         0         0         0         0         0         0         0
         0         0         0         0         0         0         0         0
         0         0         0         0         0         0         0         0
         0         0         0         0         0         0         0         0
         0         0         0         0         0         0         0         0
         0         0         0         0         0         0         0         0
         0         0         0         0         0         0         0         0
         0         0         0         0         0         0         0         0
         0         0         0         0         0         0         0         0
         0         0         0         0         0         0         0         0
         0         0         0         0         0         0         0         0
         0         0         0         0         0         0         0         0
         0         0         0         0         0         0         0         0
         0         0         0         0         0         0         0         0
         0         0         0         0         0         0         0         0
         0         0         0         0         0         0         0         0
         0         0         0         0         0         0         0         0
         0         0         0         0         0         0         0         0
         0         0         0         0         0         0         0         0
         0         0         0         0         0         0         0         0
         0         0         0         0         0         0         0         0
         0         0         0         0         0         0         0         0
         0         0         0         0         0         0         0         0
         0         0         0         0         0         0         0         0
         0         0         0         0         0         0         0         0
         0         0         0         0         0         0         0         0
         0         0         0         0         0         0         0         0
         0         0         0         0         0         0         0         0
         0         0         0         0         0         0         0         0
         0         0         0         0         0         0         0         0
         0         0         0         0         0         0         0         0
         0         0         0         0         0         0         0         0
         0         0         0         0         0         0         0         0
         0         0         0         0         0         0         0         0
         0         0         0         0         0         0         0         0
         0         0         0         0         0         0         0         0
         0         0         0         0         0         0         0         0
         0         0         0         0         0         0         0         0
         0         0         0         0         0         0         0         0
         0         0         0         0         0         0         0         0
         0         0         0         0         0         0         0         0
         0         0         0         0         0         0         0         0
         0         0         0         0         0         0         0         0
         0         0         0         0         0         0         0         0
         0         0         0         0         0         0         0         0
         0         0         0         0         0         0         0         0
         0         0         0         0         0         0         0         0
         0         0         0         0         0         0         0         0
         0         0         0         0         0         0         0         0
         0         0         0         0         0         0         0         0
         0         0         0         0         0         0         0         0
         0         0         0         0         0         0         0         0
         0         0         0         0         0         0         0         0
         0         0         0         0         0         0         0         0
         0         0         0         0         0         0         0         0
         0         0         0         0         0         0         0         0
         0         0         0         0         0         0         0         0
         0         0         0         0         0         0         0         0
         0         0         0         0         0         0         0         0
         0         0         0         0         0         0         0         0
         0         0         0         0         0         0         0         0
         0         0         0         0         0         0         0         0
         0         0         0         0         0         0         0         0
         0         0         0         0         0         0         0         0
         0         0         0         0         0         0         0         0
         0         0         0         0         0         0         0         0
         0         0         0         0         0         0         0         0
         0         0         0         0         0         0         0         0
         0         0         0         0         0         0         0         0
         0         0         0         0         0         0         0         0
         0         0         0         0         0         0         0         0
         0         0         0         0         0         0         0         0
         0         0         0         0         0         0         0         0
         0         0         0         0         0         0         0         0
         0         0         0         0         0         0         0         0
         0         0         0         0         0         0         0         0
         0         0         0         0         0         0         0         0
         0         0         0         0         0         0         0         0
         0         0         0         0         0         0         0         0
         0         0         0         0         0         0         0         0
         0         0         0         0         0         0         0         0
         0         0         0         0         0         0         0         0
         0         0         0         0         0         0         0         0
         0         0         0         0         0         0         0         0
         0         0         0         0         0         0         0         0
         0         0         0         0         0         0         0         0
         0         0         0         0         0         0         0         0
         0         0         0         0         0         0         0         0
         0         0         0         0         0         0         0         0
         0         0         0         0         0         0         0         0
         0         0         0         0         0         0         0         0
         0         0         0         0         0         0         0         0
         0         0         0         0         0         0         0         0
         0         0         0         0         0         0         0         0
         0         0         0         0         0         0         0         0
         0         0         0         0         0         0         0         0
         0         0         0         0         0         0         0         0
         0         0         0         0         0         0         0         0
         0         0         0         0         0         0         0         0
         0         0         0         0         0         0         0         0
         0         0         0         0         0         0         0         0
         0         0         0         0         0         0         0         0
         0         0         0         0         0         0         0         0
         0         0         0         0         0         0         0         0
         0         0         0         0         0         0         0         0
         0         0         0         0         0         0         0         0
         0         0         0         0         0         0         0         0
         0         0         0         0         0         0         0         0
         0         0         0         0         0         0         0         0
         0         0         0         0         0         0         0         0
         0         0         0         0         0         0         0         0
         0         0         0         0         0         0         0         0
         0         0         0         0         0         0         0         0
         0         0         0         0         0         0         0         0
         0         0         0         0         0         0         0         0
         0         0         0         0         0         0         0         0
         0         0         0         0         0         0         0         0
         0         0         0         0         0         0         0         0
         0         0         0         0         0         0         0         0
         0         0         0         0         0         0         0         0
         0         0         0         0         0         0         0         0
         0         0         0         0         0         0         0         0
         0         0         0         0         0         0         0         0
         0         0         0         0         0         0         0         0
         0         0         0         0         0         0         0         0
         0         0         0         0         0         0         0         0
         0         0         0         0         0         0         0         0
         0         0         0         0         0         0         0         0
         0         0         0         0         0         0         0         0
         0         0         0         0         0         0         0         0
         0         0         0         0         0         0         0         0
         0         0         0         0         0         0         0         0
         0         0         0         0         0         0         0         0
         0         0         0         0         0         0         0         0
         0         0         0         0         0         0         0         0
         0         0         0         0         0         0         0         0
         0         0         0         0         0         0         0         0
         0         0         0         0         0         0         0         0
         0         0         0         0         0         0         0         0
         0         0         0         0         0         0         0         0
         0         0         0         0         0         0         0         0
         0         0         0         0         0         0         0         0
         0         0         0         0         0         0         0         0
         0         0         0         0         0         0         0         0
         0         0         0         0         0         0         0         0
         0         0         0         0         0         0         0         0
         0         0         0         0         0         0         0         0
         0         0         0         0         0         0         0         0
         0         0         0         0         0         0         0         0
         0         0         0         0         0         0         0         0
         0         0         0         0         0         0         0         0
         0         0         0         0         0         0         0         0
         0         0         0         0         0         0         0         0
         0         0         0         0         0         0         0         0
         0         0         0         0         0         0         0         0
         0         0         0         0         0         0         0         0
         0         0         0         0         0         0         0         0
         0         0         0         0         0         0         0         0
         0         0         0         0         0         0         0         0
         0         0         0         0         0         0         0         0
         0         0         0         0         0         0         0         0
         0         0         0         0         0         0         0         0
         0         0         0         0         0         0         0         0
         0         0         0         0         0         0         0         0
         0         0         0         0         0         0         0         0
         0         0         0         0         0         0         0         0
         0         0         0         0         0         0         0         0
         0         0         0         0         0         0         0         0
         0         0         0         0         0         0         0         0
         0         0         0         0         0         0         0         0
         0         0         0         0         0         0         0         0
         0         0         0         0         0         0         0         0
         0         0         0         0         0         0         0         0
         0         0         0         0         0         0         0         0
         0         0         0         0         0         0         0         0
         0         0         0         0         0         0         0         0
         0         0         0         0         0         0         0         0
         0         0         0         0         0         0         0         0
         0         0         0         0         0         0         0         0
         0         0         0         0         0         0         0         0
         0         0         0         0         0         0         0         0
         0         0         0         0         0         0         0         0
         0         0         0         0         0         0         0         0
         0         0         0         0         0         0         0         0
         0         0         0         0         0         0         0         0
         0         0         0         0         0         0         0         0
         0         0         0         0         0         0         0         0
         0         0         0         0         0         0         0         0
         0         0         0         0         0         0         0         0
         0         0         0         0         0         0         0         0
         0         0         0         0         0         0         0         0
         0         0         0         0         0         0         0         0
         0         0         0         0         0         0         0         0
         0         0         0         0         0         0         0         0
         0         0         0         0         0         0         0         0
         0         0         0         0         0         0         0         0
         0         0         0         0         0         0         0         0
         0         0         0         0         0         0         0         0
         0         0         0         0         0         0         0         0
         0         0         0         0         0         0         0         0
         0         0         0         0         0         0         0         0
         0         0         0         0         0         0         0         0
         0         0         0         0         0         0         0         0
         0         0         0         0         0         0         0         0
         0         0         0         0         0         0         0         0
         0         0         0         0         0         0         0         0
         0         0         0         0         0         0         0         0
         0         0         0         0         0         0         0         0
         0         0         0         0         0         0         0         0
         0         0         0         0         0         0         0         0
         0         0         0         0         0         0         0         0
         0         0         0         0         0         0         0         0
         0         0         0         0         0         0         0         0
         0         0         0         0         0         0         0         0
         0         0         0         0         0         0         0         0
         0         0         0         0         0         0         0         0
         0         0         0         0         0         0         0         0
         0         0         0         0         0         0         0         0
         0         0         0         0         0         0         0         0
         0         0         0         0         0         0         0         0
         0         0         0         0         0         0         0         0
         0         0         0         0         0         0         0         0
         0         0         0         0         0         0         0         0
         0         0         0         0         0         0         0         0
         0         0         0         0         0         0         0         0
         0         0         0         0         0         0         0         0
         0         0         0         0         0         0         0         0
         0         0         0         0         0         0         0         0
         0         0         0         0         0         0         0         0
         0         0         0         0         0         0         0         0
         0         0         0         0         0         0         0         0
         0         0         0         0         0         0         0         0
         0         0         0         0         0         0         0         0
         0         0         0         0         0         0         0         0
         0         0         0         0         0         0         0         0
         0         0         0         0         0         0         0         0
         0         0         0         0         0         0         0         0
         0         0         0         0         0         0         0         0
         0         0         0         0         0         0         0         0
         0         0         0         0         0         0         0         0
         0         0         0         0         0         0         0         0
         0         0         0         0         0         0         0         0
         0         0         0         0         0         0         0         0
         0         0         0         0         0         0         0         0
         0         0         0         0         0         0         0         0
         0         0         0         0         0         0         0         0
         0         0         0         0         0         0         0         0
         0         0         0         0         0         0         0         0
         0         0         0         0         0         0         0         0
         0         0         0         0         0         0         0         0
         0         0         0         0         0         0         0         0
         0         0         0         0         0         0         0         0
         0         0         0         0         0         0         0         0
         0         0         0         0         0         0         0         0
         0         0         0         0         0         0         0         0
         0         0         0         0         0         0         0         0
         0         0         0         0         0         0         0         0
         0         0         0         0         0         0         0         0
         0         0         0         0         0         0         0         0
         0         0         0         0         0         0         0         0
         0         0         0         0         0         0         0         0
         0         0         0         0         0         0         0         0
         0         0         0         0         0         0         0         0
         0         0         0         0         0         0         0         0
         0         0         0         0         0         0         0         0
         0         0         0         0         0         0         0         0
         0         0         0         0         0         0         0         0
         0         0         0         0         0         0         0         0
         0         0         0         0         0         0         0         0
         0         0         0         0         0         0         0         0
         0         0         0         0         0         0         0         0
         0         0         0         0         0         0         0         0
         0         0         0         0         0         0         0         0
         0         0         0         0         0         0         0         0
         0         0         0         0         0         0         0         0
         0         0         0         0         0         0         0         0
         0         0         0         0         0         0         0         0
         0         0         0         0         0         0         0         0
         0         0         0         0         0         0         0         0
         0         0         0         0         0         0         0         0
         0         0         0         0         0         0         0         0
         0         0         0         0         0         0         0         0
         0         0         0         0         0         0         0         0
         0         0         0         0         0         0         0         0
         0         0         0         0         0         0         0         0
         0         0         0         0         0         0         0         0
         0         0         0         0         0         0         0         0
         0         0         0         0         0         0         0         0
         0         0         0         0         0         0         0         0
         0         0         0         0         0         0         0         0
         0         0         0         0         0         0         0         0
         0         0         0         0         0         0         0         0
         0         0         0         0         0         0         0         0
         0         0         0         0         0         0         0         0
         0         0         0         0         0         0         0         0
         0         0         0         0         0         0         0         0
         0         0         0         0         0         0         0         0
         0         0         0         0         0         0         0         0
         0         0         0         0         0         0         0         0
         0         0         0         0         0         0         0         0
         0         0         0         0         0         0         0         0
         0         0         0         0         0         0         0         0
         0         0         0         0         0         0         0         0
         0         0         0         0         0         0         0         0
         0         0         0         0         0         0         0         0
         0         0         0         0         0         0         0         0
         0         0         0         0         0         0         0         0
         0         0         0         0         0         0         0         0
         0         0         0         0         0         0         0         0
         0         0         0         0         0         0         0         0
         0         0         0         0         0         0         0         0
         0         0         0         0         0         0         0         0
         0         0         0         0         0         0         0         0
         0         0         0         0         0         0         0         0
         0         0         0         0         0         0         0         0
         0         0         0         0         0         0         0         0
         0         0         0         0         0         0         0         0
         0         0         0         0         0         0         0         0
         0         0         0         0         0         0         0         0
         0         0         0         0         0         0         0         0
         0         0         0         0         0         0         0         0
         0         0         0         0         0         0         0         0
         0         0         0         0         0         0         0         0
         0         0         0         0         0         0         0         0
         0         0         0         0         0         0         0         0
         0         0         0         0         0         0         0         0
         0         0         0         0         0         0         0         0
         0         0         0         0         0         0         0         0
         0         0         0         0         0         0         0         0
         0         0         0         0         0         0         0         0
         0         0         0         0         0         0         0         0
         0         0         0         0         0         0         0         0
         0         0         0         0         0         0         0         0
         0         0         0         0         0         0         0         0
         0         0         0         0         0         0         0         0
         0         0         0         0         0         0         0         0
         0         0         0         0         0         0         0         0
         0         0         0         0         0         0         0         0
         0         0         0         0         0         0         0         0
         0         0         0         0         0         0         0         0
         0         0         0         0         0         0         0         0
         0         0         0         0         0         0         0         0
         0         0         0         0         0         0         0         0
         0         0         0         0         0         0         0         0
         0         0         0         0         0         0         0         0
         0         0         0         0         0         0         0         0
         0         0         0         0         0         0         0         0
         0         0         0         0         0         0         0         0
         0         0         0         0         0         0         0         0
         0         0         0         0         0         0         0         0
         0         0         0         0         0         0         0         0
         0         0         0         0         0         0         0         0
         0         0         0         0         0         0         0         0
         0         0         0         0         0         0         0         0
         0         0         0         0         0         0         0         0
         0         0         0         0         0         0         0         0
         0         0         0         0         0         0         0         0
         0         0         0         0         0         0         0         0
         0         0         0         0         0         0         0         0
         0         0         0         0         0         0         0         0
         0         0         0         0         0         0         0         0
         0         0         0         0         0         0         0         0
         0         0         0         0         0         0         0         0
         0         0         0         0         0         0         0         0
         0         0         0         0         0         0         0         0
         0         0         0         0         0         0         0         0
         0         0         0         0         0         0         0         0
         0         0         0         0         0         0         0         0
         0         0         0         0         0         0         0         0
         0         0         0         0         0         0         0         0
         0         0         0         0         0         0         0         0
         0         0         0         0         0         0         0         0
         0         0         0         0         0         0         0         0
         0         0         0         0         0         0         0         0
         0         0         0         0         0         0         0         0
         0         0         0         0         0         0         0         0
         0         0         0         0         0         0         0         0
         0         0         0         0         0         0         0         0
         0         0         0         0         0         0         0         0
         0         0         0         0         0         0         0         0
         0         0         0         0         0         0         0         0
         0         0         0         0         0         0         0         0
         0         0         0         0         0         0         0         0
         0         0         0         0         0         0         0         0
         0         0         0         0         0         0         0         0
         0         0         0         0         0         0         0         0
         0         0         0         0         0         0         0         0
         0         0         0         0         0         0         0         0
         0         0         0         0         0         0         0         0
         0         0         0         0         0         0         0         0
         0         0         0         0         0         0         0         0
         0         0         0         0         0         0         0         0
         0         0         0         0         0         0         0         0
         0         0         0         0         0         0         0         0
         0         0         0         0         0         0         0         0
         0         0         0         0         0         0         0         0
         0         0         0         0         0         0         0         0
         0         0         0         0         0         0         0         0
         0         0         0         0         0         0         0         0
         0         0         0         0         0         0         0         0
         0         0         0         0         0         0         0         0
         0         0         0         0         0         0         0         0
         0         0         0         0         0         0         0         0
         0         0         0         0         0         0         0         0
         0         0         0         0         0         0         0         0
         0         0         0         0         0         0         0         0
         0         0         0         0         0         0         0         0
         0         0         0         0         0         0         0         0
         0         0         0         0         0         0         0         0
         0         0         0         0         0         0         0         0
         0         0         0         0         0         0         0         0
         0         0         0         0         0         0         0         0
         0         0         0         0         0         0         0         0
         0         0         0         0         0         0         0         0
         0         0         0         0         0         0         0         0
         0         0         0         0         0         0         0         0
         0         0         0         0         0         0         0         0
         0         0         0         0         0         0         0         0
         0         0         0         0         0         0         0         0
         0         0         0         0         0         0         0         0
         0         0         0         0         0         0         0         0
         0         0         0         0         0         0         0         0
         0         0         0         0         0         0         0         0
         0         0         0         0         0         0         0         0
         0         0         0         0         0         0         0         0
         0         0         0         0         0         0         0         0
         0         0         0         0         0         0         0         0
         0         0         0         0         0         0         0         0
         0         0         0         0         0         0         0         0
         0         0         0         0         0         0         0         0
         0         0         0         0         0         0         0         0
         0         0         0         0         0         0         0         0
         0         0         0         0         0         0         0         0
         0         0         0         0         0         0         0         0
         0         0         0         0         0         0         0         0
         0         0         0         0         0         0         0         0
         0         0         0         0         0         0         0         0
         0         0         0         0         0         0         0         0
         0         0         0         0         0         0         0         0
         0         0         0         0         0         0         0         0
         0         0         0         0         0         0         0         0
         0         0         0         0         0         0         0         0
         0         0         0         0         0         0         0         0
         0         0         0         0         0         0         0         0
         0         0         0         0         0         0         0         0
         0         0         0         0         0         0         0         0
         0         0         0         0         0         0         0         0
         0         0         0         0         0         0         0         0
         0         0         0         0         0         0         0         0
         0         0         0         0         0         0         0         0
         0         0         0         0         0         0         0         0
         0         0         0         0         0         0         0         0
         0         0         0         0         0         0         0         0
         0         0         0         0         0         0         0         0
         0         0         0         0         0         0         0         0
         0         0         0         0         0         0         0         0
         0         0         0         0         0         0         0         0
         0         0         0         0         0         0         0         0
         0         0         0         0         0         0         0         0
         0         0         0         0         0         0         0         0
         0         0         0         0         0         0         0         0
         0         0         0         0         0         0         0         0
         0         0         0         0         0         0         0         0
         0         0         0         0         0         0         0         0
         0         0         0         0         0         0         0         0
         0         0         0         0         0         0         0         0
         0         0         0         0         0         0         0         0
         0         0         0         0         0         0         0         0
         0         0         0         0         0         0         0         0
         0         0         0         0         0         0         0         0
         0         0         0         0         0         0         0         0
         0         0         0         0         0         0         0         0
         0         0         0         0         0         0         0         0
         0         0         0         0         0         0         0         0
         0         0         0         0         0         0         0         0
         0         0         0         0         0         0         0         0
         0         0         0         0         0         0         0         0
         0         0         0         0         0         0         0         0
         0         0         0         0         0         0         0         0
         0         0         0         0         0         0         0         0
         0         0         0         0         0         0         0         0
         0         0         0         0         0         0         0         0
         0         0         0         0         0         0         0         0
         0         0         0         0         0         0         0         0
         0         0         0         0         0         0         0         0
         0         0         0         0         0         0         0         0
         0         0         0         0         0         0         0         0
         0         0         0         0         0         0         0         0
         0         0         0         0         0         0         0         0
         0         0         0         0         0         0         0         0
         0         0         0         0         0         0         0         0
         0         0         0         0         0         0         0         0
         0         0         0         0         0         0         0         0
         0         0         0         0         0         0         0         0
         0         0         0         0         0         0         0         0
         0         0         0         0         0         0         0         0
         0         0         0         0         0         0         0         0
         0         0         0         0         0         0         0         0
         0         0         0         0         0         0         0         0
         0         0         0         0         0         0         0         0
         0         0         0         0         0         0         0         0
         0         0         0         0         0         0         0         0
         0         0         0         0         0         0         0         0
         0         0         0         0         0         0         0         0
         0         0         0         0         0         0         0         0
         0         0         0         0         0         0         0         0
         0         0         0         0         0         0         0         0
         0         0         0         0         0         0         0         0
         0         0         0         0         0         0         0         0
         0         0         0         0         0         0         0         0
         0         0         0         0         0         0         0         0
         0         0         0         0         0         0         0         0
         0         0         0         0         0         0         0         0
         0         0         0         0         0         0         0         0
         0         0         0         0         0         0         0         0
         0         0         0         0         0         0         0         0
         0         0         0         0         0         0         0         0
         0         0         0         0         0         0         0         0
         0         0         0         0         0         0         0         0
         0         0         0         0         0         0         0         0
         0         0         0         0         0         0         0         0
         0         0         0         0         0         0         0         0
         0         0         0         0         0         0         0         0
         0         0         0         0         0         0         0         0
         0         0         0         0         0         0         0         0
         0         0         0         0         0         0         0         0
         0         0         0         0         0         0         0         0
         0         0         0         0         0         0         0         0
         0         0         0         0         0         0         0         0
         0         0         0         0         0         0         0         0
         0         0         0         0         0         0         0         0
         0         0         0         0         0         0         0         0
         0         0         0         0         0         0         0         0
         0         0         0         0         0         0         0         0
         0         0         0         0         0         0         0         0
         0         0         0         0         0         0         0         0
         0         0         0         0         0         0         0         0
         0         0         0         0         0         0         0         0
         0         0         0         0         0         0         0         0
         0         0         0         0         0         0         0         0
         0         0         0         0         0         0         0         0
         0         0         0         0         0         0         0         0
         0         0         0         0         0         0         0         0
         0         0         0         0         0         0         0         0
         0         0         0         0         0         0         0         0
         0         0         0         0         0         0         0         0
         0         0         0         0         0         0         0         0
         0         0         0         0         0         0         0         0
         0         0         0         0         0         0         0         0
         0         0         0         0         0         0         0         0
         0         0         0         0         0         0         0         0
         0         0         0         0         0         0         0         0
         0         0         0         0         0         0         0         0
         0         0         0         0         0         0         0         0
         0         0         0         0         0         0         0         0
         0         0         0         0         0         0         0         0
         0         0         0         0         0         0         0         0
         0         0         0         0         0         0         0         0
         0         0         0         0         0         0         0         0
         0         0         0         0         0         0         0         0
         0         0         0         0         0         0         0         0
         0         0         0         0         0         0         0         0
         0         0         0         0         0         0         0         0
         0         0         0         0         0         0         0         0
         0         0         0         0         0         0         0         0
         0         0         0         0         0         0         0         0
         0         0         0         0         0         0         0         0
         0         0         0         0         0         0         0         0
         0         0         0         0         0         0         0         0
         0         0         0         0         0         0         0         0
         0         0         0         0         0         0         0         0
         0         0         0         0         0         0         0         0
         0         0         0         0         0         0         0         0
         0         0         0         0         0         0         0         0
         0         0         0         0         0         0         0         0
         0         0         0         0         0         0         0         0
         0         0         0         0         0         0         0         0
         0         0         0         0         0         0         0         0
         0         0         0         0         0         0         0         0
         0         0         0         0         0         0         0         0
         0         0         0         0         0         0         0         0
         0         0         0         0         0         0         0         0
         0         0         0         0         0         0         0         0
         0         0         0         0         0         0         0         0
         0         0         0         0         0         0         0         0
         0         0         0         0         0         0         0         0
         0         0         0         0         0         0         0         0
         0         0         0         0         0         0         0         0
         0         0         0         0         0         0         0         0
         0         0         0         0         0         0         0         0
         0         0         0         0         0         0         0         0
         0         0         0         0         0         0         0         0
         0         0         0         0         0         0         0         0
         0         0         0         0         0         0         0         0
         0         0         0         0         0         0         0         0
         0         0         0         0         0         0         0         0
         0         0         0         0         0         0         0         0
         0         0         0         0         0         0         0         0
         0         0         0         0         0         0         0         0
         0         0         0         0         0         0         0         0
         0         0         0         0         0         0         0         0
         0         0         0         0         0         0         0         0
         0         0         0         0         0         0         0         0
         0         0         0         0         0         0         0         0
         0         0         0         0         0         0         0         0
         0         0         0         0         0         0         0         0
         0         0         0         0         0         0         0         0
         0         0         0         0         0         0         0         0
         0         0         0         0         0         0         0         0
         0         0         0         0         0         0         0         0
         0         0         0         0         0         0         0         0
         0         0         0         0         0         0         0         0
         0         0         0         0         0         0         0         0
         0         0         0         0         0         0         0         0
         0         0         0         0         0         0         0         0
         0         0         0         0         0         0         0         0
         0         0         0         0         0         0         0         0
         0         0         0         0         0         0         0         0
         0         0         0         0         0         0         0         0
         0         0         0         0         0         0         0         0
         0         0         0         0         0         0         0         0
         0         0         0         0         0         0         0         0
         0         0         0         0         0         0         0         0
         0         0         0         0         0         0         0         0
         0         0         0         0         0         0         0         0
         0         0         0         0         0         0         0         0
         0         0         0         0         0         0         0         0
         0         0         0         0         0         0         0         0
         0         0         0         0         0         0         0         0
         0         0         0         0         0         0         0         0
         0         0         0         0         0         0         0         0
         0         0         0         0         0         0         0         0
         0         0         0         0         0         0         0         0
         0         0         0         0         0         0         0         0
         0         0         0         0         0         0         0         0
         0         0         0         0         0         0         0         0
         0         0         0         0         0         0         0         0
         0         0         0         0         0         0         0         0
         0         0         0         0         0         0         0         0
         0         0         0         0         0         0         0         0
         0         0         0         0         0         0         0         0
         0         0         0         0         0         0         0         0
         0         0         0         0         0         0         0         0
         0         0         0         0         0         0         0         0
         0         0         0         0         0         0         0         0
         0         0         0         0         0         0         0         0
         0         0         0         0         0         0         0         0
         0         0         0         0         0         0         0         0
         0         0         0         0         0         0         0         0
         0         0         0         0         0         0         0         0
         0         0         0         0         0         0         0         0
         0         0         0         0         0         0         0         0
         0         0         0         0         0         0         0         0
         0         0         0         0         0         0         0         0
         0         0         0         0         0         0         0         0
         0         0         0         0         0         0         0         0
         0         0         0         0         0         0         0         0
         0         0         0         0         0         0         0         0
         0         0         0         0         0         0         0         0
         0         0         0         0         0         0         0         0
         0         0         0         0         0         0         0         0
         0         0         0         0         0         0         0         0
         0         0         0         0         0         0         0         0
         0         0         0         0         0         0         0         0
         0         0         0         0         0         0         0         0
         0         0         0         0         0         0         0         0
         0         0         0         0         0         0         0         0
         0         0         0         0         0         0         0         0
         0         0         0         0         0         0         0         0
         0         0         0         0         0         0         0         0
         0         0         0         0         0         0         0         0
         0         0         0         0         0         0         0         0
         0         0         0         0         0         0         0         0
         0         0         0         0         0         0         0         0
         0         0         0         0         0         0         0         0
         0         0         0         0         0         0         0         0
         0         0         0         0         0         0         0         0
         0         0         0         0         0         0         0         0
         0         0         0         0         0         0         0         0
         0         0         0         0         0         0         0         0
         0         0         0         0         0         0         0         0
         0         0         0         0         0         0         0         0
         0         0         0         0         0         0         0         0
         0         0         0         0         0         0         0         0
         0         0         0         0         0         0         0         0
         0         0         0         0         0         0         0         0
         0         0         0         0         0         0         0         0
         0         0         0         0         0         0         0         0
         0         0         0         0         0         0         0         0
         0         0         0         0         0         0         0         0
         0         0         0         0         0         0         0         0
         0         0         0         0         0         0         0         0
         0         0         0         0         0         0         0         0
         0         0         0         0         0         0         0         0
         0         0         0         0         0         0         0         0
         0         0         0         0         0         0         0         0
         0         0         0         0         0         0         0         0
         0         0         0         0         0         0         0         0
         0         0         0         0         0         0         0         0
         0         0         0         0         0         0         0         0
         0         0         0         0         0         0         0         0
         0         0         0         0         0         0         0         0
         0         0         0         0         0         0         0         0
         0         0         0         0         0         0         0         0
         0         0         0         0         0         0         0         0
         0         0         0         0         0         0         0         0
         0         0         0         0         0         0         0         0
         0         0         0         0         0         0         0         0
         0         0         0         0         0         0         0         0
         0         0         0         0         0         0         0         0
         0         0         0         0         0         0         0         0
         0         0         0         0         0         0         0         0
         0         0         0         0         0         0         0         0
         0         0         0         0         0         0         0         0
         0         0         0         0         0         0         0         0
         0         0         0         0         0         0         0         0
         0         0         0         0         0         0         0         0
         0         0         0         0         0         0         0         0
         0         0         0         0         0         0         0         0
         0         0         0         0         0         0         0         0
         0         0         0         0         0         0         0         0
         0         0         0         0         0         0         0         0
         0         0         0         0         0         0         0         0
         0         0         0         0         0         0         0         0
         0         0         0         0         0         0         0         0
         0         0         0         0         0         0         0         0
         0         0         0         0         0         0         0         0
         0         0         0         0         0         0         0         0
         0         0         0         0         0         0         0         0
         0         0         0         0         0         0         0         0
         0         0         0         0         0         0         0         0
         0         0         0         0         0         0         0         0
         0         0         0         0         0         0         0         0
         0         0         0         0         0         0         0         0
         0         0         0         0         0         0         0         0
         0         0         0         0         0         0         0         0
         0         0         0         0         0         0         0         0
         0         0         0         0         0         0         0         0
         0         0         0         0         0         0         0         0
         0         0         0         0         0         0         0         0
         0         0         0         0         0         0         0         0
         0         0         0         0         0         0         0         0
         0         0         0         0         0         0         0         0
         0         0         0         0         0         0         0         0
         0         0         0         0         0         0         0         0
         0         0         0         0         0         0         0         0
         0         0         0         0         0         0         0         0
         0         0         0         0         0         0         0         0
         0         0         0         0         0         0         0         0
         0         0         0         0         0         0         0         0
         0         0         0         0         0         0         0         0
         0         0         0         0         0         0         0         0
         0         0         0         0         0         0         0         0
         0         0         0         0         0         0         0         0
         0         0         0         0         0         0         0         0
         0         0         0         0         0         0         0         0
         0         0         0         0         0         0         0         0
         0         0         0         0         0         0         0         0
         0         0         0         0         0         0         0         0
         0         0         0         0         0         0         0         0
         0         0         0         0         0         0         0         0
         0         0         0         0         0         0         0         0
         0         0         0         0         0         0         0         0
         0         0         0         0         0         0         0         0
         0         0         0         0         0         0         0         0
         0         0         0         0         0         0         0         0
         0         0         0         0         0         0         0         0
         0         0         0         0         0         0         0         0
         0         0         0         0         0         0         0         0
         0         0         0         0         0         0         0         0
         0         0         0         0         0         0         0         0
         0         0         0         0         0         0         0         0
         0         0         0         0         0         0         0         0
         0         0         0         0         0         0         0         0
         0         0         0         0         0         0         0         0
         0         0         0         0         0         0         0         0
         0         0         0         0         0         0         0         0
         0         0         0         0         0         0         0         0
         0         0         0         0         0         0         0         0
         0         0         0         0         0         0         0         0
         0         0         0         0         0         0         0         0
         0         0         0         0         0         0         0         0
         0         0         0         0         0         0         0         0
         0         0         0         0         0         0         0         0
         0         0         0         0         0         0         0         0
         0         0         0         0         0         0         0         0
         0         0         0         0         0         0         0         0
         0         0         0         0         0         0         0         0
         0         0         0         0         0         0         0         0
         0         0         0         0         0         0         0         0
         0         0         0         0         0         0         0         0
         0         0         0         0         0         0         0         0
         0         0         0         0         0         0         0         0
         0         0         0         0         0         0         0         0
         0         0         0         0         0         0         0         0
         0         0         0         0         0         0         0         0
         0         0         0         0         0         0         0         0
         0         0         0         0         0         0         0         0
         0         0         0         0         0         0         0         0
         0         0         0         0         0         0         0         0
         0         0         0         0         0         0         0         0
         0         0         0         0         0         0         0         0
         0         0         0         0         0         0         0         0
         0         0         0         0         0         0         0         0
         0         0         0         0         0         0         0         0
         0         0         0         0         0         0         0         0
         0         0         0         0         0         0         0         0
         0         0         0         0         0         0         0         0
         0         0         0         0         0         0         0         0
         0         0         0         0         0         0         0         0
         0         0         0         0         0         0         0         0
         0         0         0         0         0         0         0         0
         0         0         0         0         0         0         0         0
         0         0         0         0         0         0         0         0
         0         0         0         0         0         0         0         0
         0         0         0         0         0         0         0         0
         0         0         0         0         0         0         0         0
         0         0         0         0         0         0         0         0
         0         0         0         0         0         0         0         0
         0         0         0         0         0         0         0         0
         0         0         0         0         0         0         0         0
         0         0         0         0         0         0         0         0
         0         0         0         0         0         0         0         0
         0         0         0         0         0         0         0         0
         0         0         0         0         0         0         0         0
         0         0         0         0         0         0         0         0
         0         0         0         0         0         0         0         0
         0         0         0         0         0         0         0         0
         0         0         0         0         0         0         0         0
         0         0         0         0         0         0         0         0
         0         0         0         0         0         0         0         0
         0         0         0         0         0         0         0         0
         0         0         0         0         0         0         0         0
         0         0         0         0         0         0         0         0
         0         0         0         0         0         0         0         0
         0         0         0         0         0         0         0         0
         0         0         0         0         0         0         0         0
         0         0         0         0         0         0         0         0
         0         0         0         0         0         0         0         0
         0         0         0         0         0         0         0         0
         0         0         0         0         0         0         0         0
         0         0         0         0         0         0         0         0
         0         0         0         0         0         0         0         0
         0         0         0         0         0         0         0         0
         0         0         0         0         0         0         0         0
         0         0         0         0         0         0         0         0
         0         0         0         0         0         0         0         0
         0         0         0         0         0         0         0         0
         0         0         0         0         0         0         0         0
         0         0         0         0         0         0         0         0
         0         0         0         0         0         0         0         0
         0         0         0         0         0         0         0         0
         0         0         0         0         0         0         0         0
         0         0         0         0         0         0         0         0
         0         0         0         0         0         0         0         0
         0         0         0         0         0         0         0         0
         0         0         0         0         0         0         0         0
         0         0         0         0         0         0         0         0
         0         0         0         0         0         0         0         0
         0         0         0         0         0         0         0         0
         0         0         0         0         0         0         0         0
         0         0         0         0         0         0         0         0
         0         0         0         0         0         0         0         0
         0         0         0         0         0         0         0         0
         0         0         0         0         0         0         0         0
         0         0         0         0         0         0         0         0
         0         0         0         0         0         0         0         0
         0         0         0         0         0         0         0         0
         0         0         0         0         0         0         0         0
         0         0         0         0         0         0         0         0
         0         0         0         0         0         0         0         0
         0         0         0         0         0         0         0         0
         0         0         0         0         0         0         0         0
         0         0         0         0         0         0         0         0
         0         0         0         0         0         0         0         0
         0         0         0         0         0         0         0         0
         0         0         0         0         0         0         0         0
         0         0         0         0         0         0         0         0
         0         0         0         0         0         0         0         0
         0         0         0         0         0         0         0         0
         0         0         0         0         0         0         0         0
         0         0         0         0         0         0         0         0
         0         0         0         0         0         0         0         0
         0         0         0         0         0         0         0         0
         0         0         0         0         0         0         0         0
         0         0         0         0         0         0         0         0
         0         0         0         0         0         0         0         0
         0         0         0         0         0         0         0         0
         0         0         0         0         0         0         0         0
         0         0         0         0         0         0         0         0
         0         0         0         0         0         0         0         0
         0         0         0         0         0         0         0         0
         0         0         0         0         0         0         0         0
         0         0         0         0         0         0         0         0
         0         0         0         0         0         0         0         0
         0         0         0         0         0         0         0         0
         0         0         0         0         0         0         0         0
         0         0         0         0         0         0         0         0
         0         0         0         0         0         0         0         0
         0         0         0         0         0         0         0         0
         0         0         0         0         0         0         0         0
         0         0         0         0         0         0         0         0
         0         0         0         0         0         0         0         0
         0         0         0         0         0         0         0         0
         0         0         0         0         0         0         0         0
         0         0         0         0         0         0         0         0
         0         0         0         0         0         0         0         0
         0         0         0         0         0         0         0         0
         0         0         0         0         0         0         0         0
         0         0         0         0         0         0         0         0
         0         0         0         0         0         0         0         0
         0         0         0         0         0         0         0         0
         0         0         0         0         0         0         0         0
         0         0         0         0         0         0         0         0
         0         0         0         0         0         0         0         0
         0         0         0         0         0         0         0         0
         0         0         0         0         0         0         0         0
         0         0         0         0         0         0         0         0
         0         0         0         0         0         0         0         0
         0         0         0         0         0         0         0         0
         0         0         0         0         0         0         0         0
         0         0         0         0         0         0         0         0
         0         0         0         0         0         0         0         0
         0         0         0         0         0         0         0         0
         0         0         0         0         0         0         0         0
         0         0         0         0         0         0         0         0
         0         0         0         0         0         0         0         0
         0         0         0         0         0         0         0         0
         0         0         0         0         0         0         0         0
         0         0         0         0         0         0         0         0
         0         0         0         0         0         0         0         0
         0         0         0         0         0         0         0         0
         0         0         0         0         0         0         0         0
         0         0         0         0         0         0         0         0
         0         0         0         0         0         0         0         0
         0         0         0         0         0         0         0         0
         0         0         0         0         0         0         0         0
         0         0         0         0         0         0         0         0
         0         0         0         0         0         0         0         0
         0         0         0         0         0         0         0         0
         0         0         0         0         0         0         0         0
         0         0         0         0         0         0         0         0
         0         0         0         0         0         0         0         0
         0         0         0         0         0         0         0         0
         0         0         0         0         0         0         0         0
         0         0         0         0         0         0         0         0
         0         0         0         0         0         0         0         0
         0         0         0         0         0         0         0         0
         0         0         0         0         0         0         0         0
         0         0         0         0         0         0         0         0
         0         0         0         0         0         0         0         0
         0         0         0         0         0         0         0         0
         0         0         0         0         0         0         0         0
         0         0         0         0         0         0         0         0
         0         0         0         0         0         0         0         0
         0         0         0         0         0         0         0         0
         0         0         0         0         0         0         0         0
         0         0         0         0         0         0         0         0
         0         0         0         0         0         0         0         0
         0         0         0         0         0         0         0         0
         0         0         0         0         0         0         0         0
         0         0         0         0         0         0         0         0
         0         0         0         0         0         0         0         0
         0         0         0         0         0         0         0         0
         0         0         0         0         0         0         0         0
         0         0         0         0         0         0         0         0
         0         0         0         0         0         0         0         0
         0         0         0         0         0         0         0         0
         0         0         0         0         0         0         0         0
         0         0         0         0         0         0         0         0
         0         0         0         0         0         0         0         0
         0         0         0         0         0         0         0         0
         0         0         0         0         0         0         0         0
         0         0         0         0         0         0         0         0
         0         0         0         0         0         0         0         0
         0         0         0         0         0         0         0         0
         0         0         0         0         0         0         0         0
         0         0         0         0         0         0         0         0
         0         0         0         0         0         0         0         0
         0         0         0         0         0         0         0         0
         0         0         0         0         0         0         0         0
         0         0         0         0         0         0         0         0
         0         0         0         0         0         0         0         0
         0         0         0         0         0         0         0         0
         0         0         0         0         0         0         0         0
         0         0         0         0         0         0         0         0
         0         0         0         0         0         0         0         0
         0         0         0         0         0         0         0         0
         0         0         0         0         0         0         0         0
         0         0         0         0         0         0         0         0
         0         0         0         0         0         0         0         0
         0         0         0         0         0         0         0         0
         0         0         0         0         0         0         0         0
         0         0         0         0         0         0         0         0
         0         0         0         0         0         0         0         0
         0         0         0         0         0         0         0         0
         0         0         0         0         0         0         0         0
         0         0         0         0         0         0         0         0
         0         0         0         0         0         0         0         0
         0         0         0         0         0         0         0         0
         0         0
         0         0         0         0         0         0         0         0
         0         0         0         0         0         0         0         0
         0         0         0         0         0         0         0         0
         0         0         0         0         0         0         0         0
         0         0         0         0         0         0         0         0
         0         0         0         0         0         0         0         0
         0         0         0         0         0         0         0         0
         0         0         0         0         0         0         0         0
         0         0         0         0         0         0         0         0
         0         0         0         0         0         0         0         0
         0         0         0         0         0         0         0         0
         0         0         0         0         0         0         0         0
         0         0         0         0         0         0         0         0
         0         0         0         0         0         0         0         0
         0         0         0         0         0         0         0         0
         0         0         0         0         0         0         0         0
         0         0         0         0         0         0         0         0
         0         0         0         0         0         0         0         0
         0         0         0         0         0         0         0         0
         0         0         0         0         0         0         0         0
         0         0         0         0         0         0         0         0
         0         0         0         0         0         0         0         0
         0         0         0         0         0         0         0         0
         0         0         0         0         0         0         0         0
         0         0         0         0         0         0         0         0
         0         0         0         0         0         0         0         0
         0         0         0         0         0         0         0         0
         0         0         0         0         0         0         0         0
         0         0         0         0         0         0         0         0
         0         0         0         0         0         0         0         0
         0         0         0         0         0         0         0         0
         0         0         0         0         0         0         0         0
         0         0         0         0         0         0         0         0
         0         0         0         0         0         0         0         0
         0         0         0         0         0         0         0         0
         0         0         0         0         0         0         0         0
         0         0         0         0         0         0         0         0
         0         0         0         0         0         0         0         0
         0         0         0         0         0         0         0         0
         0         0         0         0         0         0         0         0
         0         0         0         0         0         0         0         0
         0         0         0         0         0         0         0         0
         0         0         0         0         0         0         0         0
         0         0         0         0         0         0         0         0
         0         0         0         0         0         0         0         0
         0         0         0         0         0         0         0         0
         0         0         0         0         0         0         0         0
         0         0         0         0         0         0         0         0
         0         0         0         0         0         0         0         0
         0         0         0         0         0         0         0         0
         0         0         0         0         0         0         0         0
         0         0         0         0         0         0         0         0
         0         0         0         0         0         0         0         0
         0         0         0         0         0         0         0         0
         0         0         0         0         0         0         0         0
         0         0         0         0         0         0         0         0
         0         0         0         0         0         0         0         0
         0         0         0         0         0         0         0         0
         0         0         0         0         0         0         0         0
         0         0         0         0         0         0         0         0
         0         0         0         0         0         0         0         0
         0         0         0         0         0         0         0         0
         0         0         0         0         0         0         0         0
         0         0         0         0         0         0         0         0
         0         0         0         0         0         0         0         0
         0         0         0         0         0         0         0         0
         0         0         0         0         0         0         0         0
         0         0         0         0         0         0         0         0
         0         0         0         0         0         0         0         0
         0         0         0         0         0         0         0         0
         0         0         0         0         0         0         0         0
         0         0         0         0         0         0         0         0
         0         0         0         0         0         0         0         0
         0         0         0         0         0         0         0         0
         0         0         0         0         0         0         0         0
         0         0         0         0         0         0         0         0
         0         0         0         0         0         0         0         0
         0         0         0         0         0         0         0         0
         0         0         0         0         0         0         0         0
         0         0         0         0         0         0         0         0
         0         0         0         0         0         0         0         0
         0         0         0         0         0         0         0         0
         0         0         0         0         0         0         0         0
         0         0         0         0         0         0         0         0
         0         0         0         0         0         0         0         0
         0         0         0         0         0         0         0         0
         0         0         0         0         0         0         0         0
         0         0         0         0         0         0         0         0
         0         0         0         0         0         0         0         0
         0         0         0         0         0         0         0         0
         0         0         0         0         0         0         0         0
         0         0         0         0         0         0         0         0
         0         0         0         0         0         0         0         0
         0         0         0         0         0         0         0         0
         0         0         0         0         0         0         0         0
         0         0         0         0         0         0         0         0
         0         0         0         0         0         0         0         0
         0         0         0         0         0         0         0         0
         0         0         0         0         0         0         0         0
         0         0         0         0         0         0         0         0
         0         0         0         0         0         0         0         0
         0         0         0         0         0         0         0         0
         0         0         0         0         0         0         0         0
         0         0         0         0         0         0         0         0
         0         0         0         0         0         0         0         0
         0         0         0         0         0         0         0         0
         0         0         0         0         0         0         0         0
         0         0         0         0         0         0         0         0
         0         0         0         0         0         0         0         0
         0         0         0         0         0         0         0         0
         0         0         0         0         0         0         0         0
         0         0         0         0         0         0         0         0
         0         0         0         0         0         0         0         0
         0         0         0         0         0         0         0         0
         0         0         0         0         0         0         0         0
         0         0         0         0         0         0         0         0
         0         0         0         0         0         0         0         0
         0         0         0         0         0         0         0         0
         0         0         0         0         0         0         0         0
         0         0         0         0         0         0         0         0
         0         0         0         0         0         0         0         0
         0         0         0         0         0         0         0         0
         0         0         0         0         0         0         0         0
         0         0         0         0         0         0         0         0
         0         0         0         0         0         0         0         0
         0         0         0         0         0         0         0         0
         0         0         0         0         0         0         0         0
         0         0         0         0         0         0         0         0
         0         0         0         0         0         0         0         0
         0         0         0         0         0         0         0         0
         0         0         0         0         0         0         0         0
         0         0         0         0         0         0         0         0
         0         0         0         0         0         0         0         0
         0         0         0         0         0         0         0         0
         0         0         0         0         0         0         0         0
         0         0         0         0         0         0         0         0
         0         0         0         0         0         0         0         0
         0         0         0         0         0         0         0         0
         0         0         0         0         0         0         0         0
         0         0         0         0         0         0         0         0
         0         0         0         0         0         0         0         0
         0         0         0         0         0         0         0         0
         0         0         0         0         0         0         0         0
         0         0         0         0         0         0         0         0
         0         0         0         0         0         0         0         0
         0         0         0         0         0         0         0         0
         0         0         0         0         0         0         0         0
         0         0         0         0         0         0         0         0
         0         0         0         0         0         0         0         0
         0         0         0         0         0         0         0         0
         0         0         0         0         0         0         0         0
         0         0         0         0         0         0         0         0
         0         0         0         0         0         0         0         0
         0         0         0         0         0         0         0         0
         0         0         0         0         0         0         0         0
         0         0         0         0         0         0         0         0
         0         0         0         0         0         0         0         0
         0         0         0         0         0         0         0         0
         0         0         0         0         0         0         0         0
         0         0         0         0         0         0         0         0
         0         0         0         0         0         0         0         0
         0         0         0         0         0         0         0         0
         0         0         0         0         0         0         0         0
         0         0         0         0         0         0         0         0
         0         0         0         0         0         0         0         0
         0         0         0         0         0         0         0         0
         0         0         0         0         0         0         0         0
         0         0         0         0         0         0         0         0
         0         0         0         0         0         0         0         0
         0         0         0         0         0         0         0         0
         0         0         0         0         0         0         0         0
         0         0         0         0         0         0         0         0
         0         0         0         0         0         0         0         0
         0         0         0         0         0         0         0         0
         0         0         0         0         0         0         0         0
         0         0         0         0         0         0         0         0
         0         0         0         0         0         0         0         0
         0         0         0         0         0         0         0         0
         0         0         0         0         0         0         0         0
         0         0         0         0         0         0         0         0
         0         0         0         0         0         0         0         0
         0         0         0         0         0         0         0         0
         0         0         0         0         0         0         0         0
         0         0         0         0         0         0         0         0
         0         0         0         0         0         0         0         0
         0         0         0         0         0         0         0         0
         0         0         0         0         0         0         0         0
         0         0         0         0         0         0         0         0
         0         0         0         0         0         0         0         0
         0         0         0         0         0         0         0         0
         0         0         0         0         0         0         0         0
         0         0         0         0         0         0         0         0
         0         0         0         0         0         0         0         0
         0         0         0         0         0         0         0         0
         0         0         0         0         0         0         0         0
         0         0         0         0         0         0         0         0
         0         0         0         0         0         0         0         0
         0         0         0         0         0         0         0         0
         0         0         0         0         0         0         0         0
         0         0         0         0         0         0         0         0
         0         0         0         0         0         0         0         0
         0         0         0         0         0         0         0         0
         0         0         0         0         0         0         0         0
         0         0         0         0         0         0         0         0
         0         0         0         0         0         0         0         0
         0         0         0         0         0         0         0         0
         0         0         0         0         0         0         0         0
         0         0         0         0         0         0         0         0
         0         0         0         0         0         0         0         0
         0         0         0         0         0         0         0         0
         0         0         0         0         0         0         0         0
         0         0         0         0         0         0         0         0
         0         0         0         0         0         0         0         0
         0         0         0         0         0         0         0         0
         0         0         0         0         0         0         0         0
         0         0         0         0         0         0         0         0
         0         0         0         0         0         0         0         0
         0         0         0         0         0         0         0         0
         0         0         0         0         0         0         0         0
         0         0         0         0         0         0         0         0
         0         0         0         0         0         0         0         0
         0         0         0         0         0         0         0         0
         0         0         0         0         0         0         0         0
         0         0         0         0         0         0         0         0
         0         0         0         0         0         0         0         0
         0         0         0         0         0         0         0         0
         0         0         0         0         0         0         0         0
         0         0         0         0         0         0         0         0
         0         0         0         0         0         0         0         0
         0         0         0         0         0         0         0         0
         0         0         0         0         0         0         0         0
         0         0         0         0         0         0         0         0
         0         0         0         0         0         0         0         0
         0         0         0         0         0         0         0         0
         0         0         0         0         0         0         0         0
         0         0         0         0         0         0         0         0
         0         0         0         0         0         0         0         0
         0         0         0         0         0         0         0         0
         0         0         0         0         0         0         0         0
         0         0         0         0         0         0         0         0
         0         0         0         0         0         0         0         0
         0         0         0         0         0         0         0         0
         0         0         0         0         0         0         0         0
         0         0         0         0         0         0         0         0
         0         0         0         0         0         0         0         0
         0         0         0         0         0         0         0         0
         0         0         0         0         0         0         0         0
         0         0         0         0         0         0         0         0
         0         0         0         0         0         0         0         0
         0         0         0         0         0         0         0         0
         0         0         0         0         0         0         0         0
         0         0         0         0         0         0         0         0
         0         0         0         0         0         0         0         0
         0         0         0         0         0         0         0         0
         0         0         0         0         0         0         0         0
         0         0         0         0         0         0         0         0
         0         0         0         0         0         0         0         0
         0         0         0         0         0         0         0         0
         0         0         0         0         0         0         0         0
         0         0         0         0         0         0         0         0
         0         0         0         0         0         0         0         0
         0         0         0         0         0         0         0         0
         0         0         0         0         0         0         0         0
         0         0         0         0         0         0         0         0
         0         0         0         0         0         0         0         0
         0         0         0         0         0         0         0         0
         0         0         0         0         0         0         0         0
         0         0         0         0         0         0         0         0
         0         0         0         0         0         0         0         0
         0         0         0         0         0         0         0         0
         0         0         0         0         0         0         0         0
         0         0         0         0         0         0         0         0
         0         0         0         0         0         0         0         0
         0         0         0         0         0         0         0         0
         0         0         0         0         0         0         0         0
         0         0         0         0         0         0         0         0
         0         0         0         0         0         0         0         0
         0         0         0         0         0         0         0         0
         0         0         0         0         0         0         0         0
         0         0         0         0         0         0         0         0
         0         0         0         0         0         0         0         0
         0         0         0         0         0         0         0         0
         0         0         0         0         0         0         0         0
         0         0         0         0         0         0         0         0
         0         0         0         0         0         0         0         0
         0         0         0         0         0         0         0         0
         0         0         0         0         0         0         0         0
         0         0         0         0         0         0         0         0
         0         0         0         0         0         0         0         0
         0         0         0         0         0         0         0         0
         0         0         0         0         0         0         0         0
         0         0         0         0         0         0         0         0
         0         0         0         0         0         0         0         0
         0         0         0         0         0         0         0         0
         0         0         0         0         0         0         0         0
         0         0         0         0         0         0         0         0
         0         0         0         0         0         0         0         0
         0         0         0         0         0         0         0         0
         0         0         0         0         0         0         0         0
         0         0         0         0         0         0         0         0
         0         0         0         0         0         0         0         0
         0         0         0         0         0         0         0         0
         0         0         0         0         0         0         0         0
         0         0         0         0         0         0         0         0
         0         0         0         0         0         0         0         0
         0         0         0         0         0         0         0         0
         0         0         0         0         0         0         0         0
         0         0         0         0         0         0         0         0
         0         0         0         0         0         0         0         0
         0         0         0         0         0         0         0         0
         0         0         0         0         0         0         0         0
         0         0         0         0         0         0         0         0
         0         0         0         0         0         0         0         0
         0         0         0         0         0         0         0         0
         0         0         0         0         0         0         0         0
         0         0         0         0         0         0         0         0
         0         0         0         0         0         0         0         0
         0         0         0         0         0         0         0         0
         0         0         0         0         0         0         0         0
         0         0         0         0         0         0         0         0
         0         0         0         0         0         0         0         0
         0         0         0         0         0         0         0         0
         0         0         0         0         0         0         0         0
         0         0         0         0         0         0         0         0
         0         0         0         0         0         0         0         0
         0         0         0         0         0         0         0         0
         0         0         0         0         0         0         0         0
         0         0         0         0         0         0         0         0
         0         0         0         0         0         0         0         0
         0         0         0         0         0         0         0         0
         0         0         0         0         0         0         0         0
         0         0         0         0         0         0         0         0
         0         0         0         0         0         0         0         0
         0         0         0         0         0         0         0         0
         0         0         0         0         0         0         0         0
         0         0         0         0         0         0         0         0
         0         0         0         0         0         0         0         0
         0         0         0         0         0         0         0         0
         0         0         0         0         0         0         0         0
         0         0         0         0         0         0         0         0
         0         0         0         0         0         0         0         0
         0         0         0         0         0         0         0         0
         0         0         0         0         0         0         0         0
         0         0         0         0         0         0         0         0
         0         0         0         0         0         0         0         0
         0         0         0         0         0         0         0         0
         0         0         0         0         0         0         0         0
         0         0         0         0         0         0         0         0
         0         0         0         0         0         0         0         0
         0         0         0         0         0         0         0         0
         0         0         0         0         0         0         0         0
         0         0         0         0         0         0         0         0
         0         0         0         0         0         0         0         0
         0         0         0         0         0         0         0         0
         0         0         0         0         0         0         0         0
         0         0         0         0         0         0         0         0
         0         0         0         0         0         0         0         0
         0         0         0         0         0         0         0         0
         0         0         0         0         0         0         0         0
         0         0         0         0         0         0         0         0
         0         0         0         0         0         0         0         0
         0         0         0         0         0         0         0         0
         0         0         0         0         0         0         0         0
         0         0         0         0         0         0         0         0
         0         0         0         0         0         0         0         0
         0         0         0         0         0         0         0         0
         0         0         0         0         0         0         0         0
         0         0         0         0         0         0         0         0
         0         0         0         0         0         0         0         0
         0         0         0         0         0         0         0         0
         0         0         0         0         0         0         0         0
         0         0         0         0         0         0         0         0
         0         0         0         0         0         0         0         0
         0         0         0         0         0         0         0         0
         0         0         0         0         0         0         0         0
         0         0         0         0         0         0         0         0
         0         0         0         0         0         0         0         0
         0         0         0         0         0         0         0         0
         0         0         0         0         0         0         0         0
         0         0         0         0         0         0         0         0
         0         0         0         0         0         0         0         0
         0         0         0         0         0         0         0         0
         0         0         0         0         0         0         0         0
         0         0         0         0         0         0         0         0
         0         0         0         0         0         0         0         0
         0         0         0         0         0         0         0         0
         0         0         0         0         0         0         0         0
         0         0         0         0         0         0         0         0
         0         0         0         0         0         0         0         0
         0         0         0         0         0         0         0         0
         0         0         0         0         0         0         0         0
         0         0         0         0         0         0         0         0
         0         0         0         0         0         0         0         0
         0         0         0         0         0         0         0         0
         0         0         0         0         0         0         0         0
         0         0         0         0         0         0         0         0
         0         0         0         0         0         0         0         0
         0         0         0         0         0         0         0         0
         0         0         0         0         0         0         0         0
         0         0         0         0         0         0         0         0
         0         0         0         0         0         0         0         0
         0         0         0         0         0         0         0         0
         0         0         0         0         0         0         0         0
         0         0         0         0         0         0         0         0
         0         0         0         0         0         0         0         0
         0         0         0         0         0         0         0         0
         0         0         0         0         0         0         0         0
         0         0         0         0         0         0         0         0
         0         0         0         0         0         0         0         0
         0         0         0         0         0         0         0         0
         0         0         0         0         0         0         0         0
         0         0         0         0         0         0         0         0
         0         0         0         0         0         0         0         0
         0         0         0         0         0         0         0         0
         0         0         0         0         0         0         0         0
         0         0         0         0         0         0         0         0
         0         0         0         0         0         0         0         0
         0         0         0         0         0         0         0         0
         0         0         0         0         0         0         0         0
         0         0         0         0         0         0         0         0
         0         0         0         0         0         0         0         0
         0         0         0         0         0         0         0         0
         0         0         0         0         0         0         0         0
         0         0         0         0         0         0         0         0
         0         0         0         0         0         0         0         0
         0         0         0         0         0         0         0         0
         0         0         0         0         0         0         0         0
         0         0         0         0         0         0         0         0
         0         0         0         0         0         0         0         0
         0         0         0         0         0         0         0         0
         0         0         0         0         0         0         0         0
         0         0         0         0         0         0         0         0
         0         0         0         0         0         0         0         0
         0         0         0         0         0         0         0         0
         0         0         0         0         0         0         0         0
         0         0         0         0         0         0         0         0
         0         0         0         0         0         0         0         0
         0         0         0         0         0         0         0         0
         0         0         0         0         0         0         0         0
         0         0         0         0         0         0         0         0
         0         0         0         0         0         0         0         0
         0         0         0         0         0         0         0         0
         0         0         0         0         0         0         0         0
         0         0         0         0         0         0         0         0
         0         0         0         0         0         0         0         0
         0         0         0         0         0         0         0         0
         0         0         0         0         0         0         0         0
         0         0         0         0         0         0         0         0
         0         0         0         0         0         0         0         0
         0         0         0         0         0         0         0         0
         0         0         0         0         0         0         0         0
         0         0         0         0         0         0         0         0
         0         0         0         0         0         0         0         0
         0         0         0         0         0         0         0         0
         0         0         0         0         0         0         0         0
         0         0         0         0         0         0         0         0
         0         0         0         0         0         0         0         0
         0         0         0         0         0         0         0         0
         0         0         0         0         0         0         0         0
         0         0         0         0         0         0         0         0
         0         0         0         0         0         0         0         0
         0         0         0         0         0         0         0         0
         0         0         0         0         0         0         0         0
         0         0         0         0         0         0         0         0
         0         0         0         0         0         0         0         0
         0         0         0         0         0         0         0         0
         0         0         0         0         0         0         0         0
         0         0         0         0         0         0         0         0
         0         0         0         0         0         0         0         0
         0         0         0         0         0         0         0         0
         0         0         0         0         0         0         0         0
         0         0         0         0         0         0         0         0
         0         0         0         0         0         0         0         0
         0         0         0         0         0         0         0         0
         0         0         0         0         0         0         0         0
         0         0         0         0         0         0         0         0
         0         0         0         0         0         0         0         0
         0         0         0         0         0         0         0         0
         0         0         0         0         0         0         0         0
         0         0         0         0         0         0         0         0
         0         0         0         0         0         0         0         0
         0         0         0         0         0         0         0         0
         0         0         0         0         0         0         0         0
         0         0         0         0         0         0         0         0
         0         0         0         0         0         0         0         0
         0         0         0         0         0         0         0         0
         0         0         0         0         0         0         0         0
         0         0         0         0         0         0         0         0
         0         0         0         0         0         0         0         0
         0         0         0         0         0         0         0         0
         0         0         0         0         0         0         0         0
         0         0         0         0         0         0         0         0
         0         0         0         0         0         0         0         0
         0         0         0         0         0         0         0         0
         0         0         0         0         0         0         0         0
         0         0         0         0         0         0         0         0
         0         0         0         0         0         0         0         0
         0         0         0         0         0         0         0         0
         0         0         0         0         0         0         0         0
         0         0         0         0         0         0         0         0
         0         0         0         0         0         0         0         0
         0         0         0         0         0         0         0         0
         0         0         0         0         0         0         0         0
         0         0         0         0         0         0         0         0
         0         0         0         0         0         0         0         0
         0         0         0         0         0         0         0         0
         0         0         0         0         0         0         0         0
         0         0         0         0         0         0         0         0
         0         0         0         0         0         0         0         0
         0         0         0         0         0         0         0         0
         0         0         0         0         0         0         0         0
         0         0         0         0         0         0         0         0
         0         0         0         0         0         0         0         0
         0         0         0         0         0         0         0         0
         0         0         0         0         0         0         0         0
         0         0         0         0         0         0         0         0
         0         0         0         0         0         0         0         0
         0         0         0         0         0         0         0         0
         0         0         0         0         0         0         0         0
         0         0         0         0         0         0         0         0
         0         0         0         0         0         0         0         0
         0         0         0         0         0         0         0         0
         0         0         0         0         0         0         0         0
         0         0         0         0         0         0         0         0
         0         0         0         0         0         0         0         0
         0         0         0         0         0         0         0         0
         0         0         0         0         0         0         0         0
         0         0         0         0         0         0         0         0
         0         0         0         0         0         0         0         0
         0         0         0         0         0         0         0         0
         0         0         0         0         0         0         0         0
         0         0         0         0         0         0         0         0
         0         0         0         0         0         0         0         0
         0         0         0         0         0         0         0         0
         0         0         0         0         0         0         0         0
         0         0         0         0         0         0         0         0
         0         0         0         0         0         0         0         0
         0         0         0         0         0         0         0         0
         0         0         0         0         0         0         0         0
         0         0         0         0         0         0         0         0
         0         0         0         0         0         0         0         0
         0         0         0         0         0         0         0         0
         0         0         0         0         0         0         0         0
         0         0         0         0         0         0         0         0
         0         0         0         0         0         0         0         0
         0         0         0         0         0         0         0         0
         0         0         0         0         0         0         0         0
         0         0         0         0         0         0         0         0
         0         0         0         0         0         0         0         0
         0         0         0         0         0         0         0         0
         0         0         0         0         0         0         0         0
         0         0         0         0         0         0         0         0
         0         0         0         0         0         0         0         0
         0         0         0         0         0         0         0         0
         0         0         0         0         0         0         0         0
         0         0         0         0         0         0         0         0
         0         0         0         0         0         0         0         0
         0         0         0         0         0         0         0         0
         0         0         0         0         0         0         0         0
         0         0         0         0         0         0         0         0
         0         0         0         0         0         0         0         0
         0         0         0         0         0         0         0         0
         0         0         0         0         0         0         0         0
         0         0         0         0         0         0         0         0
         0         0         0         0         0         0         0         0
         0         0         0         0         0         0         0         0
         0         0         0         0         0         0         0         0
         0         0         0         0         0         0         0         0
         0         0         0         0         0         0         0         0
         0         0         0         0         0         0         0         0
         0         0         0         0         0         0         0         0
         0         0         0         0         0         0         0         0
         0         0         0         0         0         0         0         0
         0         0         0         0         0         0         0         0
         0         0         0         0         0         0         0         0
         0         0         0         0         0         0         0         0
         0         0         0         0         0         0         0         0
         0         0         0         0         0         0         0         0
         0         0         0         0         0         0         0         0
         0         0         0         0         0         0         0         0
         0         0         0         0         0         0         0         0
         0         0         0         0         0         0         0         0
         0         0         0         0         0         0         0         0
         0         0         0         0         0         0         0         0
         0         0         0         0         0         0         0         0
         0         0         0         0         0         0         0         0
         0         0         0         0         0         0         0         0
         0         0         0         0         0         0         0         0
         0         0         0         0         0         0         0         0
         0         0         0         0         0         0         0         0
         0         0         0         0         0         0         0         0
         0         0         0         0         0         0         0         0
         0         0         0         0         0         0         0         0
         0         0         0         0         0         0         0         0
         0         0         0         0         0         0         0         0
         0         0         0         0         0         0         0         0
         0         0         0         0         0         0         0         0
         0         0         0         0         0         0         0         0
         0         0         0         0         0         0         0         0
         0         0         0         0         0         0         0         0
         0         0         0         0         0         0         0         0
         0         0         0         0         0         0         0         0
         0         0         0         0         0         0         0         0
         0         0         0         0         0         0         0         0
         0         0         0         0         0         0         0         0
         0         0         0         0         0         0         0         0
         0         0         0         0         0         0         0         0
         0         0         0         0         0         0         0         0
         0         0         0         0         0         0         0         0
         0         0         0         0         0         0         0         0
         0         0         0         0         0         0         0         0
         0         0         0         0         0         0         0         0
         0         0         0         0         0         0         0         0
         0         0         0         0         0         0         0         0
         0         0         0         0         0         0         0         0
         0         0         0         0         0         0         0         0
         0         0         0         0         0         0         0         0
         0         0         0         0         0         0         0         0
         0         0         0         0         0         0         0         0
         0         0         0         0         0         0         0         0
         0         0         0         0         0         0         0         0
         0         0         0         0         0         0         0         0
         0         0         0         0         0         0         0         0
         0         0         0         0         0         0         0         0
         0         0         0         0         0         0         0         0
         0         0         0         0         0         0         0         0
         0         0         0         0         0         0         0         0
         0         0         0         0         0         0         0         0
         0         0         0         0         0         0         0         0
         0         0         0         0         0         0         0         0
         0         0         0         0         0         0         0         0
         0         0         0         0         0         0         0         0
         0         0         0         0         0         0         0         0
         0         0         0         0         0         0         0         0
         0         0         0         0         0         0         0         0
         0         0         0         0         0         0         0         0
         0         0         0         0         0         0         0         0
         0         0         0         0         0         0         0         0
         0         0         0         0         0         0         0         0
         0         0         0         0         0         0         0         0
         0         0         0         0         0         0         0         0
         0         0         0         0         0         0         0         0
         0         0         0         0         0         0         0         0
         0         0         0         0         0         0         0         0
         0         0         0         0         0         0         0         0
         0         0         0         0         0         0         0         0
         0         0         0         0         0         0         0         0
         0         0         0         0         0         0         0         0
         0         0         0         0         0         0         0         0
         0         0         0         0         0         0         0         0
         0         0         0         0         0         0         0         0
         0         0         0         0         0         0         0         0
         0         0         0         0         0         0         0         0
         0         0         0         0         0         0         0         0
         0         0         0         0         0         0         0         0
         0         0         0         0         0         0         0         0
         0         0         0         0         0         0         0         0
         0         0         0         0         0         0         0         0
         0         0         0         0         0         0         0         0
         0         0         0         0         0         0         0         0
         0         0         0         0         0         0         0         0
         0         0         0         0         0         0         0         0
         0         0         0         0         0         0         0         0
         0         0         0         0         0         0         0         0
         0         0         0         0         0         0         0         0
         0         0         0         0         0         0         0         0
         0         0         0         0         0         0         0         0
         0         0         0         0         0         0         0         0
         0         0         0         0         0         0         0         0
         0         0         0         0         0         0         0         0
         0         0         0         0         0         0         0         0
         0         0         0         0         0         0         0         0
         0         0         0         0         0         0         0         0
         0         0         0         0         0         0         0         0
         0         0         0         0         0         0         0         0
         0         0         0         0         0         0         0         0
         0         0         0         0         0         0         0         0
         0         0         0         0         0         0         0         0
         0         0         0         0         0         0         0         0
         0         0         0         0         0         0         0         0
         0         0         0         0         0         0         0         0
         0         0         0         0         0         0         0         0
         0         0         0         0         0         0         0         0
         0         0         0         0         0         0         0         0
         0         0         0         0         0         0         0         0
         0         0         0         0         0         0         0         0
         0         0         0         0         0         0         0         0
         0         0         0         0         0         0         0         0
         0         0         0         0         0         0         0         0
         0         0         0         0         0         0         0         0
         0         0         0         0         0         0         0         0
         0         0         0         0         0         0         0         0
         0         0         0         0         0         0         0         0
         0         0         0         0         0         0         0         0
         0         0         0         0         0         0         0         0
         0         0         0         0         0         0         0         0
         0         0         0         0         0         0         0         0
         0         0         0         0         0         0         0         0
         0         0         0         0         0         0         0         0
         0         0         0         0         0         0         0         0
         0         0         0         0         0         0         0         0
         0         0         0         0         0         0         0         0
         0         0         0         0         0         0         0         0
         0         0         0         0         0         0         0         0
         0         0         0         0         0         0         0         0
         0         0         0         0         0         0         0         0
         0         0         0         0         0         0         0         0
         0         0         0         0         0         0         0         0
         0         0         0         0         0         0         0         0
         0         0         0         0         0         0         0         0
         0         0         0         0         0         0         0         0
         0         0         0         0         0         0         0         0
         0         0         0         0         0         0         0         0
         0         0         0         0         0         0         0         0
         0         0         0         0         0         0         0         0
         0         0         0         0         0         0         0         0
         0         0         0         0         0         0         0         0
         0         0         0         0         0         0         0         0
         0         0         0         0         0         0         0         0
         0         0         0         0         0         0         0         0
         0         0         0         0         0         0         0         0
         0         0         0         0         0         0         0         0
         0         0         0         0         0         0         0         0
         0         0         0         0         0         0         0         0
         0         0         0         0         0         0         0         0
         0         0         0         0         0         0         0         0
         0         0         0         0         0         0         0         0
         0         0         0         0         0         0         0         0
         0         0         0         0         0         0         0         0
         0         0         0         0         0         0         0         0
         0         0         0         0         0         0         0         0
         0         0         0         0         0         0         0         0
         0         0         0         0         0         0         0         0
         0         0         0         0         0         0         0         0
         0         0         0         0         0         0         0         0
         0         0         0         0         0         0         0         0
         0         0         0         0         0         0         0         0
         0         0         0         0         0         0         0         0
         0         0         0         0         0         0         0         0
         0         0         0         0         0         0         0         0
         0         0         0         0         0         0         0         0
         0         0         0         0         0         0         0         0
         0         0         0         0         0         0         0         0
         0         0         0         0         0         0         0         0
         0         0         0         0         0         0         0         0
         0         0         0         0         0         0         0         0
         0         0         0         0         0         0         0         0
         0         0         0         0         0         0         0         0
         0         0         0         0         0         0         0         0
         0         0         0         0         0         0         0         0
         0         0         0         0         0         0         0         0
         0         0         0         0         0         0         0         0
         0         0         0         0         0         0         0         0
         0         0         0         0         0         0         0         0
         0         0         0         0         0         0         0         0
         0         0         0         0         0         0         0         0
         0         0         0         0         0         0         0         0
         0         0         0         0         0         0         0         0
         0         0         0         0         0         0         0         0
         0         0         0         0         0         0         0         0
         0         0         0         0         0         0         0         0
         0         0         0         0         0         0         0         0
         0         0         0         0         0         0         0         0
         0         0         0         0         0         0         0         0
         0         0         0         0         0         0         0         0
         0         0         0         0         0         0         0         0
         0         0         0         0         0         0         0         0
         0         0         0         0         0         0         0         0
         0         0         0         0         0         0         0         0
         0         0         0         0         0         0         0         0
         0         0         0         0         0         0         0         0
         0         0         0         0         0         0         0         0
         0         0         0         0         0         0         0         0
         0         0         0         0         0         0         0         0
         0         0         0         0         0         0         0         0
         0         0         0         0         0         0         0         0
         0         0         0         0         0         0         0         0
         0         0         0         0         0         0         0         0
         0         0         0         0         0         0         0         0
         0         0         0         0         0         0         0         0
         0         0         0         0         0         0         0         0
         0         0         0         0         0         0         0         0
         0         0         0         0         0         0         0         0
         0         0         0         0         0         0         0         0
         0         0         0         0         0         0         0         0
         0         0         0         0         0         0         0         0
         0         0         0         0         0         0         0         0
         0         0         0         0         0         0         0         0
         0         0         0         0         0         0         0         0
         0         0         0         0         0         0         0         0
         0         0         0         0         0         0         0         0
         0         0         0         0         0         0         0         0
         0         0         0         0         0         0         0         0
         0         0         0         0         0         0         0         0
         0         0         0         0         0         0         0         0
         0         0         0         0         0         0         0         0
         0         0         0         0         0         0         0         0
         0         0         0         0         0         0         0         0
         0         0         0         0         0         0         0         0
         0         0         0         0         0         0         0         0
         0         0         0         0         0         0         0         0
         0         0         0         0         0         0         0         0
         0         0         0         0         0         0         0         0
         0         0         0         0         0         0         0         0
         0         0         0         0         0         0         0         0
         0         0         0         0         0         0         0         0
         0         0         0         0         0         0         0         0
         0         0         0         0         0         0         0         0
         0         0         0         0         0         0         0         0
         0         0         0         0         0         0         0         0
         0         0         0         0         0         0         0         0
         0         0         0         0         0         0         0         0
         0         0         0         0         0         0         0         0
         0         0         0         0         0         0         0         0
         0         0         0         0         0         0         0         0
         0         0         0         0         0         0         0         0
         0         0         0         0         0         0         0         0
         0         0         0         0         0         0         0         0
         0         0         0         0         0         0         0         0
         0         0         0         0         0         0         0         0
         0         0         0         0         0         0         0         0
         0         0         0         0         0         0         0         0
         0         0         0         0         0         0         0         0
         0         0         0         0         0         0         0         0
         0         0         0         0         0         0         0         0
         0         0         0         0         0         0         0         0
         0         0         0         0         0         0         0         0
         0         0         0         0         0         0         0         0
         0         0         0         0         0         0         0         0
         0         0         0         0         0         0         0         0
         0         0         0         0         0         0         0         0
         0         0         0         0         0         0         0         0
         0         0         0         0         0         0         0         0
         0         0         0         0         0         0         0         0
         0         0         0         0         0         0         0         0
         0         0         0         0         0         0         0         0
         0         0         0         0         0         0         0         0
         0         0         0         0         0         0         0         0
         0         0         0         0         0         0         0         0
         0         0         0         0         0         0         0         0
         0         0         0         0         0         0         0         0
         0         0         0         0         0         0         0         0
         0         0         0         0         0         0         0         0
         0         0         0         0         0         0         0         0
         0         0         0         0         0         0         0         0
         0         0         0         0         0         0         0         0
         0         0         0         0         0         0         0         0
         0         0         0         0         0         0         0         0
         0         0         0         0         0         0         0         0
         0         0         0         0         0         0         0         0
         0         0         0         0         0         0         0         0
         0         0         0         0         0         0         0         0
         0         0         0         0         0         0         0         0
         0         0         0         0         0         0         0         0
         0         0         0         0         0         0         0         0
         0         0         0         0         0         0         0         0
         0         0         0         0         0         0         0         0
         0         0         0         0         0         0         0         0
         0         0         0         0         0         0         0         0
         0         0         0         0         0         0         0         0
         0         0         0         0         0         0         0         0
         0         0         0         0         0         0         0         0
         0         0         0         0         0         0         0         0
         0         0         0         0         0         0         0         0
         0         0         0         0         0         0         0         0
         0         0         0         0         0         0         0         0
         0         0         0         0         0         0         0         0
         0         0         0         0         0         0         0         0
         0         0         0         0         0         0         0         0
         0         0         0         0         0         0         0         0
         0         0         0         0         0         0         0         0
         0         0         0         0         0         0         0         0
         0         0         0         0         0         0         0         0
         0         0         0         0         0         0         0         0
         0         0         0         0         0         0         0         0
         0         0         0         0         0         0         0         0
         0         0         0         0         0         0         0         0
         0         0         0         0         0         0         0         0
         0         0         0         0         0         0         0         0
         0         0         0         0         0         0         0         0
         0         0         0         0         0         0         0         0
         0         0         0         0         0         0         0         0
         0         0         0         0         0         0         0         0
         0         0         0         0         0         0         0         0
         0         0         0         0         0         0         0         0
         0         0         0         0         0         0         0         0
         0         0         0         0         0         0         0         0
         0         0         0         0         0         0         0         0
         0         0         0         0         0         0         0         0
         0         0         0         0         0         0         0         0
         0         0         0         0         0         0         0         0
         0         0         0         0         0         0         0         0
         0         0         0         0         0         0         0         0
         0         0         0         0         0         0         0         0
         0         0         0         0         0         0         0         0
         0         0         0         0         0         0         0         0
         0         0         0         0         0         0         0         0
         0         0         0         0         0         0         0         0
         0         0         0         0         0         0         0         0
         0         0         0         0         0         0         0         0
         0         0         0         0         0         0         0         0
         0         0         0         0         0         0         0         0
         0         0         0         0         0         0         0         0
         0         0         0         0         0         0         0         0
         0         0         0         0         0         0         0         0
         0         0         0         0         0         0         0         0
         0         0         0         0         0         0         0         0
         0         0         0         0         0         0         0         0
         0         0         0         0         0         0         0         0
         0         0         0         0         0         0         0         0
         0         0         0         0         0         0         0         0
         0         0         0         0         0         0         0         0
         0         0         0         0         0         0         0         0
         0         0         0         0         0         0         0         0
         0         0         0         0         0         0         0         0
         0         0         0         0         0         0         0         0
         0         0         0         0         0         0         0         0
         0         0         0         0         0         0         0         0
         0         0         0         0         0         0         0         0
         0         0         0         0         0         0         0         0
         0         0         0         0         0         0         0         0
         0         0         0         0         0         0         0         0
         0         0         0         0         0         0         0         0
         0         0         0         0         0         0         0         0
         0         0         0         0         0         0         0         0
         0         0         0         0         0         0         0         0
         0         0         0         0         0         0         0         0
         0         0         0         0         0         0         0         0
         0         0         0         0         0         0         0         0
         0         0         0         0         0         0         0         0
         0         0         0         0         0         0         0         0
         0         0         0         0         0         0         0         0
         0         0         0         0         0         0         0         0
         0         0         0         0         0         0         0         0
         0         0         0         0         0         0         0         0
         0         0         0         0         0         0         0         0
         0         0         0         0         0         0         0         0
         0         0         0         0         0         0         0         0
         0         0         0         0         0         0         0         0
         0         0         0         0         0         0         0         0
         0         0         0         0         0         0         0         0
         0         0         0         0         0         0         0         0
         0         0         0         0         0         0         0         0
         0         0         0         0         0         0         0         0
         0         0         0         0         0         0         0         0
         0         0         0         0         0         0         0         0
         0         0         0         0         0         0         0         0
         0         0         0         0         0         0         0         0
         0         0         0         0         0         0         0         0
         0         0         0         0         0         0         0         0
         0         0         0         0         0         0         0         0
         0         0         0         0         0         0         0         0
         0         0         0         0         0         0         0         0
         0         0         0         0         0         0         0         0
         0         0         0         0         0         0         0         0
         0         0         0         0         0         0         0         0
         0         0         0         0         0         0         0         0
         0         0         0         0         0         0         0         0
         0         0         0         0         0         0         0         0
         0         0         0         0         0         0         0         0
         0         0         0         0         0         0         0         0
         0         0         0         0         0         0         0         0
         0         0         0         0         0         0         0         0
         0         0         0         0         0         0         0         0
         0         0         0         0         0         0         0         0
         0         0         0         0         0         0         0         0
         0         0         0         0         0         0         0         0
         0         0         0         0         0         0         0         0
         0         0         0         0         0         0         0         0
         0         0         0         0         0         0         0         0
         0         0         0         0         0         0         0         0
         0         0         0         0         0         0         0         0
         0         0         0         0         0         0         0         0
         0         0         0         0         0         0         0         0
         0         0         0         0         0         0         0         0
         0         0         0         0         0         0         0         0
         0         0         0         0         0         0         0         0
         0         0         0         0         0         0         0         0
         0         0         0         0         0         0         0         0
         0         0         0         0         0         0         0         0
         0         0         0         0         0         0         0         0
         0         0         0         0         0         0         0         0
         0         0         0         0         0         0         0         0
         0         0         0         0         0         0         0         0
         0         0         0         0         0         0         0         0
         0         0         0         0         0         0         0         0
         0         0         0         0         0         0         0         0
         0         0         0         0         0         0         0         0
         0         0         0         0         0         0         0         0
         0         0         0         0         0         0         0         0
         0         0         0         0         0         0         0         0
         0         0         0         0         0         0         0         0
         0         0         0         0         0         0         0         0
         0         0         0         0         0         0         0         0
         0         0         0         0         0         0         0         0
         0         0         0         0         0         0         0         0
         0         0         0         0         0         0         0         0
         0         0         0         0         0         0         0         0
         0         0         0         0         0         0         0         0
         0         0         0         0         0         0         0         0
         0         0         0         0         0         0         0         0
         0         0         0         0         0         0         0         0
         0         0         0         0         0         0         0         0
         0         0         0         0         0         0         0         0
         0         0         0         0         0         0         0         0
         0         0         0         0         0         0         0         0
         0         0         0         0         0         0         0         0
         0         0         0         0         0         0         0         0
         0         0         0         0         0         0         0         0
         0         0         0         0         0         0         0         0
         0         0         0         0         0         0         0         0
         0         0         0         0         0         0         0         0
         0         0         0         0         0         0         0         0
         0         0         0         0         0         0         0         0
         0         0         0         0         0         0         0         0
         0         0         0         0         0         0         0         0
         0         0         0         0         0         0         0         0
         0         0         0         0         0         0         0         0
         0         0         0         0         0         0         0         0
         0         0         0         0         0         0         0         0
         0         0         0         0         0         0         0         0
         0         0         0         0         0         0         0         0
         0         0         0         0         0         0         0         0
         0         0         0         0         0         0         0         0
         0         0         0         0         0         0         0         0
         0         0         0         0         0         0         0         0
         0         0         0         0         0         0         0         0
         0         0         0         0         0         0         0         0
         0         0         0         0         0         0         0         0
         0         0         0         0         0         0         0         0
         0         0         0         0         0         0         0         0
         0         0         0         0         0         0         0         0
         0         0         0         0         0         0         0         0
         0         0         0         0         0         0         0         0
         0         0         0         0         0         0         0         0
         0         0         0         0         0         0         0         0
         0         0         0         0         0         0         0         0
         0         0         0         0         0         0         0         0
         0         0         0         0         0         0         0         0
         0         0         0         0         0         0         0         0
         0         0         0         0         0         0         0         0
         0         0         0         0         0         0         0         0
         0         0         0         0         0         0         0         0
         0         0         0         0         0         0         0         0
         0         0         0         0         0         0         0         0
         0         0         0         0         0         0         0         0
         0         0         0         0         0         0         0         0
         0         0         0         0         0         0         0         0
         0         0         0         0         0         0         0         0
         0         0         0         0         0         0         0         0
         0         0         0         0         0         0         0         0
         0         0         0         0         0         0         0         0
         0         0         0         0         0         0         0         0
         0         0         0         0         0         0         0         0
         0         0         0         0         0         0         0         0
         0         0         0         0         0         0         0         0
         0         0         0         0         0         0         0         0
         0         0         0         0         0         0         0         0
         0         0         0         0         0         0         0         0
         0         0         0         0         0         0         0         0
         0         0         0         0         0         0         0         0
         0         0         0         0         0         0         0         0
         0         0         0         0         0         0         0         0
         0         0         0         0         0         0         0         0
         0         0         0         0         0         0         0         0
         0         0         0         0         0         0         0         0
         0         0         0         0         0         0         0         0
         0         0         0         0         0         0         0         0
         0         0         0         0         0         0         0         0
         0         0         0         0         0         0         0         0
         0         0         0         0         0         0         0         0
         0         0         0         0         0         0         0         0
         0         0         0         0         0         0         0         0
         0         0         0         0         0         0         0         0
         0         0         0         0         0         0         0         0
         0         0         0         0         0         0         0         0
         0         0         0         0         0         0         0         0
         0         0         0         0         0         0         0         0
         0         0         0         0         0         0         0         0
         0         0         0         0         0         0         0         0
         0         0         0         0         0         0         0         0
         0         0         0         0         0         0         0         0
         0         0         0         0         0         0         0         0
         0         0         0         0         0         0         0         0
         0         0         0         0         0         0         0         0
         0         0         0         0         0         0         0         0
         0         0         0         0         0         0         0         0
         0         0         0         0         0         0         0         0
         0         0         0         0         0         0         0         0
         0         0         0         0         0         0         0         0
         0         0         0         0         0         0         0         0
         0         0         0         0         0         0         0         0
         0         0         0         0         0         0         0         0
         0         0         0         0         0         0         0         0
         0         0         0         0         0         0         0         0
         0         0         0         0         0         0         0         0
         0         0         0         0         0         0         0         0
         0         0         0         0         0         0         0         0
         0         0         0         0         0         0         0         0
         0         0         0         0         0         0         0         0
         0         0         0         0         0         0         0         0
         0         0         0         0         0         0         0         0
         0         0         0         0         0         0         0         0
         0         0         0         0         0         0         0         0
         0         0         0         0         0         0         0         0
         0         0         0         0         0         0         0         0
         0         0         0         0         0         0         0         0
         0         0         0         0         0         0         0         0
         0         0         0         0         0         0         0         0
         0         0         0         0         0         0         0         0
         0         0         0         0         0         0         0         0
         0         0         0         0         0         0         0         0
         0         0         0         0         0         0         0         0
         0         0         0         0         0         0         0         0
         0         0         0         0         0         0         0         0
         0         0         0         0         0         0         0         0
         0         0         0         0         0         0         0         0
         0         0         0         0         0         0         0         0
         0         0         0         0         0         0         0         0
         0         0         0         0         0         0         0         0
         0         0         0         0         0         0         0         0
         0         0         0         0         0         0         0         0
         0         0         0         0         0         0         0         0
         0         0         0         0         0         0         0         0
         0         0         0         0         0         0         0         0
         0         0         0         0         0         0         0         0
         0         0         0         0         0         0         0         0
         0         0         0         0         0         0         0         0
         0         0         0         0         0         0         0         0
         0         0         0         0         0         0         0         0
         0         0         0         0         0         0         0         0
         0         0         0         0         0         0         0         0
         0         0         0         0         0         0         0         0
         0         0         0         0         0         0         0         0
         0         0         0         0         0         0         0         0
         0         0         0         0         0         0         0         0
         0         0         0         0         0         0         0         0
         0         0         0         0         0         0         0         0
         0         0         0         0         0         0         0         0
         0         0         0         0         0         0         0         0
         0         0         0         0         0         0         0         0
         0         0         0         0         0         0         0         0
         0         0         0         0         0         0         0         0
         0         0         0         0         0         0         0         0
         0         0         0         0         0         0         0         0
         0         0         0         0         0         0         0         0
         0         0         0         0         0         0         0         0
         0         0         0         0         0         0         0         0
         0         0         0         0         0         0         0         0
         0         0         0         0         0         0         0         0
         0         0         0         0         0         0         0         0
         0         0         0         0         0         0         0         0
         0         0         0         0         0         0         0         0
         0         0         0         0         0         0         0         0
         0         0         0         0         0         0         0         0
         0         0         0         0         0         0         0         0
         0         0         0         0         0         0         0         0
         0         0         0         0         0         0         0         0
         0         0         0         0         0         0         0         0
         0         0         0         0         0         0         0         0
         0         0         0         0         0         0         0         0
         0         0         0         0         0         0         0         0
         0         0         0         0         0         0         0         0
         0         0         0         0         0         0         0         0
         0         0         0         0         0         0         0         0
         0         0         0         0         0         0         0         0
         0         0         0         0         0         0         0         0
         0         0         0         0         0         0         0         0
         0         0         0         0         0         0         0         0
         0         0         0         0         0         0         0         0
         0         0         0         0         0         0         0         0
         0         0         0         0         0         0         0         0
         0         0         0         0         0         0         0         0
         0         0         0         0         0         0         0         0
         0         0         0         0         0         0         0         0
         0         0         0         0         0         0         0         0
         0         0         0         0         0         0         0         0
         0         0         0         0         0         0         0         0
         0         0         0         0         0         0         0         0
         0         0         0         0         0         0         0         0
         0         0         0         0         0         0         0         0
         0         0         0         0         0         0         0         0
         0         0         0         0         0         0         0         0
         0         0         0         0         0         0         0         0
         0         0         0         0         0         0         0         0
         0         0         0         0         0         0         0         0
         0         0         0         0         0         0         0         0
         0         0         0         0         0         0         0         0
         0         0         0         0         0         0         0         0
         0         0         0         0         0         0         0         0
         0         0         0         0         0         0         0         0
         0         0         0         0         0         0         0         0
         0         0         0         0         0         0         0         0
         0         0         0         0         0         0         0         0
         0         0         0         0         0         0         0         0
         0         0         0         0         0         0         0         0
         0         0         0         0         0         0         0         0
         0         0         0         0         0         0         0         0
         0         0         0         0         0         0         0         0
         0         0         0         0         0         0         0         0
         0         0         0         0         0         0         0         0
         0         0         0         0         0         0         0         0
         0         0         0         0         0         0         0         0
         0         0         0         0         0         0         0         0
         0         0         0         0         0         0         0         0
         0         0         0         0         0         0         0         0
         0         0         0         0         0         0         0         0
         0         0         0         0         0         0         0         0
         0         0         0         0         0         0         0         0
         0         0         0         0         0         0         0         0
         0         0         0         0         0         0         0         0
         0         0         0         0         0         0         0         0
         0         0         0         0         0         0         0         0
         0         0         0         0         0         0         0         0
         0         0         0         0         0         0         0         0
         0         0         0         0         0         0         0         0
         0         0         0         0         0         0         0         0
         0         0         0         0         0         0         0         0
         0         0         0         0         0         0         0         0
         0         0         0         0         0         0         0         0
         0         0         0         0         0         0         0         0
         0         0         0         0         0         0         0         0
         0         0         0         0         0         0         0         0
         0         0         0         0         0         0         0         0
         0         0         0         0         0         0         0         0
         0         0         0         0         0         0         0         0
         0         0         0         0         0         0         0         0
         0         0         0         0         0         0         0         0
         0         0         0         0         0         0         0         0
         0         0         0         0         0         0         0         0
         0         0         0         0         0         0         0         0
         0         0         0         0         0         0         0         0
         0         0         0         0         0         0         0         0
         0         0         0         0         0         0         0         0
         0         0         0         0         0         0         0         0
         0         0         0         0         0         0         0         0
         0         0         0         0         0         0         0         0
         0         0         0         0         0         0         0         0
         0         0         0         0         0         0         0         0
         0         0         0         0         0         0         0         0
         0         0         0         0         0         0         0         0
         0         0         0         0         0         0         0         0
         0         0         0         0         0         0         0         0
         0         0         0         0         0         0         0         0
         0         0         0         0         0         0         0         0
         0         0         0         0         0         0         0         0
         0         0         0         0         0         0         0         0
         0         0         0         0         0         0         0         0
         0         0         0         0         0         0         0         0
         0         0         0         0         0         0         0         0
         0         0         0         0         0         0         0         0
         0         0         0         0         0         0         0         0
         0         0         0         0         0         0         0         0
         0         0         0         0         0         0         0         0
         0         0         0         0         0         0         0         0
         0         0         0         0         0         0         0         0
         0         0         0         0         0         0         0         0
         0         0         0         0         0         0         0         0
         0         0         0         0         0         0         0         0
         0         0         0         0         0         0         0         0
         0         0         0         0         0         0         0         0
         0         0         0         0         0         0         0         0
         0         0         0         0         0         0         0         0
         0         0         0         0         0         0         0         0
         0         0         0         0         0         0         0         0
         0         0         0         0         0         0         0         0
         0         0         0         0         0         0         0         0
         0         0         0         0         0         0         0         0
         0         0         0         0         0         0         0         0
         0         0         0         0         0         0         0         0
         0         0         0         0         0         0         0         0
         0         0         0         0         0         0         0         0
         0         0         0         0         0         0         0         0
         0         0         0         0         0         0         0         0
         0         0         0         0         0         0         0         0
         0         0         0         0         0         0         0         0
         0         0         0         0         0         0         0         0
         0         0         0         0         0         0         0         0
         0         0         0         0         0         0         0         0
         0         0         0         0         0         0         0         0
         0         0         0         0         0         0         0         0
         0         0         0         0         0         0         0         0
         0         0         0         0         0         0         0         0
         0         0         0         0         0         0         0         0
         0         0         0         0         0         0         0         0
         0         0         0         0         0         0         0         0
         0         0         0         0         0         0         0         0
         0         0         0         0         0         0         0         0
         0         0         0         0         0         0         0         0
         0         0         0         0         0         0         0         0
         0         0         0         0         0         0         0         0
         0         0         0         0         0         0         0         0
         0         0         0         0         0         0         0         0
         0         0         0         0         0         0         0         0
         0         0         0         0         0         0         0         0
         0         0         0         0         0         0         0         0
         0         0         0         0         0         0         0         0
         0         0         0         0         0         0         0         0
         0         0         0         0         0         0         0         0
         0         0         0         0         0         0         0         0
         0         0         0         0         0         0         0         0
         0         0         0         0         0         0         0         0
         0         0         0         0         0         0         0         0
         0         0         0         0         0         0         0         0
         0         0         0         0         0         0         0         0
         0         0         0         0         0         0         0         0
         0         0         0         0         0         0         0         0
         0         0         0         0         0         0         0         0
         0         0         0         0         0         0         0         0
         0         0         0         0         0         0         0         0
         0         0         0         0         0         0         0         0
         0         0         0         0         0         0         0         0
         0         0         0         0         0         0         0         0
         0         0         0         0         0         0         0         0
         0         0         0         0         0         0         0         0
         0         0         0         0         0         0         0         0
         0         0         0         0         0         0         0         0
         0         0         0         0         0         0         0         0
         0         0         0         0         0         0         0         0
         0         0         0         0         0         0         0         0
         0         0         0         0         0         0         0         0
         0         0         0         0         0         0         0         0
         0         0         0         0         0         0         0         0
         0         0         0         0         0         0         0         0
         0         0         0         0         0         0         0         0
         0         0         0         0         0         0         0         0
         0         0         0         0         0         0         0         0
         0         0         0         0         0         0         0         0
         0         0         0         0         0         0         0         0
         0         0         0         0         0         0         0         0
         0         0         0         0         0         0         0         0
         0         0         0         0         0         0         0         0
         0         0         0         0         0         0         0         0
         0         0         0         0         0         0         0         0
         0         0         0         0         0         0         0         0
         0         0         0         0         0         0         0         0
         0         0         0         0         0         0         0         0
         0         0         0         0         0         0         0         0
         0         0         0         0         0         0         0         0
         0         0         0         0         0         0         0         0
         0         0         0         0         0         0         0         0
         0         0         0         0         0         0         0         0
         0         0         0         0         0         0         0         0
         0         0         0         0         0         0         0         0
         0         0         0         0         0         0         0         0
         0         0         0         0         0         0         0         0
         0         0         0         0         0         0         0         0
         0         0         0         0         0         0         0         0
         0         0         0         0         0         0         0         0
         0         0         0         0         0         0         0         0
         0         0         0         0         0         0         0         0
         0         0         0         0         0         0         0         0
         0         0         0         0         0         0         0         0
         0         0         0         0         0         0         0         0
         0         0         0         0         0         0         0         0
         0         0         0         0         0         0         0         0
         0         0         0         0         0         0         0         0
         0         0         0         0         0         0         0         0
         0         0         0         0         0         0         0         0
         0         0         0         0         0         0         0         0
         0         0         0         0         0         0         0         0
         0         0         0         0         0         0         0         0
         0         0         0         0         0         0         0         0
         0         0         0         0         0         0         0         0
         0         0         0         0         0         0         0         0
         0         0         0         0         0         0         0         0
         0         0         0         0         0         0         0         0
         0         0         0         0         0         0         0         0
         0         0         0         0         0         0         0         0
         0         0         0         0         0         0         0         0
         0         0         0         0         0         0         0         0
         0         0         0         0         0         0         0         0
         0         0         0         0         0         0         0         0
         0         0         0         0         0         0         0         0
         0         0         0         0         0         0         0         0
         0         0         0         0         0         0         0         0
         0         0         0         0         0         0         0         0
         0         0         0         0         0         0         0         0
         0         0         0         0         0         0         0         0
         0         0         0         0         0         0         0         0
         0         0         0         0         0         0         0         0
         0         0         0         0         0         0         0         0
         0         0         0         0         0         0         0         0
         0         0         0         0         0         0         0         0
         0         0         0         0         0         0         0         0
         0         0         0         0         0         0         0         0
         0         0         0         0         0         0         0         0
         0         0         0         0         0         0         0         0
         0         0         0         0         0         0         0         0
         0         0         0         0         0         0         0         0
         0         0         0         0         0         0         0         0
         0         0         0         0         0         0         0         0
         0         0         0         0         0         0         0         0
         0         0         0         0         0         0         0         0
         0         0         0         0         0         0         0         0
         0         0         0         0         0         0         0         0
         0         0         0         0         0         0         0         0
         0         0         0         0         0         0         0         0
         0         0         0         0         0         0         0         0
         0         0         0         0         0         0         0         0
         0         0         0         0         0         0         0         0
         0         0         0         0         0         0         0         0
         0         0         0         0         0         0         0         0
         0         0         0         0         0         0         0         0
         0         0         0         0         0         0         0         0
         0         0         0         0         0         0         0         0
         0         0         0         0         0         0         0         0
         0         0         0         0         0         0         0         0
         0         0         0         0         0         0         0         0
         0         0         0         0         0         0         0         0
         0         0         0         0         0         0         0         0
         0         0         0         0         0         0         0         0
         0         0         0         0         0         0         0         0
         0         0         0         0         0         0         0         0
         0         0         0         0         0         0         0         0
         0         0         0         0         0         0         0         0
         0         0         0         0         0         0         0         0
         0         0         0         0         0         0         0         0
         0         0         0         0         0         0         0         0
         0         0         0         0         0         0         0         0
         0         0         0         0         0         0         0         0
         0         0         0         0         0         0         0         0
         0         0         0         0         0         0         0         0
         0         0         0         0         0         0         0         0
         0         0         0         0         0         0         0         0
         0         0         0         0         0         0         0         0
         0         0         0         0         0         0         0         0
         0         0         0         0         0         0         0         0
         0         0         0         0         0         0         0         0
         0         0         0         0         0         0         0         0
         0         0         0         0         0         0         0         0
         0         0         0         0         0         0         0         0
         0         0         0         0         0         0         0         0
         0         0         0         0         0         0         0         0
         0         0         0         0         0         0         0         0
         0         0         0         0         0         0         0         0
         0         0         0         0         0         0         0         0
         0         0         0         0         0         0         0         0
         0         0         0         0         0         0         0         0
         0         0         0         0         0         0         0         0
         0         0         0         0         0         0         0         0
         0         0         0         0         0         0         0         0
         0         0         0         0         0         0         0         0
         0         0         0         0         0         0         0         0
         0         0         0         0         0         0         0         0
         0         0         0         0         0         0         0         0
         0         0         0         0         0         0         0         0
         0         0         0         0         0         0         0         0
         0         0         0         0         0         0         0         0
         0         0         0         0         0         0         0         0
         0         0         0         0         0         0         0         0
         0         0         0         0         0         0         0         0
         0         0         0         0         0         0         0         0
         0         0         0         0         0         0         0         0
         0         0         0         0         0         0         0         0
         0         0         0         0         0         0         0         0
         0         0         0         0         0         0         0         0
         0         0         0         0         0         0         0         0
         0         0         0         0         0         0         0         0
         0         0         0         0         0         0         0         0
         0         0         0         0         0         0         0         0
         0         0         0         0         0         0         0         0
         0         0         0         0         0         0         0         0
         0         0         0         0         0         0         0         0
         0         0         0         0         0         0         0         0
         0         0         0         0         0         0         0         0
         0         0         0         0         0         0         0         0
         0         0         0         0         0         0         0         0
         0         0         0         0         0         0         0         0
         0         0         0         0         0         0         0         0
         0         0         0         0         0         0         0         0
         0         0         0         0         0         0         0         0
         0         0         0         0         0         0         0         0
         0         0         0         0         0         0         0         0
         0         0         0         0         0         0         0         0
         0         0         0         0         0         0         0         0
         0         0         0         0         0         0         0         0
         0         0         0         0         0         0         0         0
         0         0         0         0         0         0         0         0
         0         0         0         0         0         0         0         0
         0         0         0         0         0         0         0         0
         0         0         0         0         0         0         0         0
         0         0         0         0         0         0         0         0
         0         0         0         0         0         0         0         0
         0         0         0         0         0         0         0         0
         0         0         0         0         0         0         0         0
         0         0         0         0         0         0         0         0
         0         0         0         0         0         0         0         0
         0         0         0         0         0         0         0         0
         0         0         0         0         0         0         0         0
         0         0         0         0         0         0         0         0
         0         0         0         0         0         0         0         0
         0         0         0         0         0         0         0         0
         0         0         0         0         0         0         0         0
         0         0         0         0         0         0         0         0
         0         0         0         0         0         0         0         0
         0         0         0         0         0         0         0         0
         0         0         0         0         0         0         0         0
         0         0         0         0         0         0         0         0
         0         0         0         0         0         0         0         0
         0         0         0         0         0         0         0         0
         0         0         0         0         0         0         0         0
         0         0         0         0         0         0         0         0
         0         0         0         0         0         0         0         0
         0         0         0         0         0         0         0         0
         0         0         0         0         0         0         0         0
         0         0         0         0         0         0         0         0
         0         0         0         0         0         0         0         0
         0         0         0         0         0         0         0         0
         0         0         0         0         0         0         0         0
         0         0         0         0         0         0         0         0
         0         0         0         0         0         0         0         0
         0         0         0         0         0         0         0         0
         0         0         0         0         0         0         0         0
         0         0         0         0         0         0         0         0
         0         0         0         0         0         0         0         0
         0         0         0         0         0         0         0         0
         0         0         0         0         0         0         0         0
         0         0         0         0         0         0         0         0
         0         0         0         0         0         0         0         0
         0         0         0         0         0         0         0         0
         0         0         0         0         0         0         0         0
         0         0         0         0         0         0         0         0
         0         0         0         0         0         0         0         0
         0         0         0         0         0         0         0         0
         0         0         0         0         0         0         0         0
         0         0         0         0         0         0         0         0
         0         0         0         0         0         0         0         0
         0         0         0         0         0         0         0         0
         0         0         0         0         0         0         0         0
         0         0         0         0         0         0         0         0
         0         0         0         0         0         0         0         0
         0         0         0         0         0         0         0         0
         0         0         0         0         0         0         0         0
         0         0         0         0         0         0         0         0
         0         0         0         0         0         0         0         0
         0         0         0         0         0         0         0         0
         0         0         0         0         0         0         0         0
         0         0         0         0         0         0         0         0
         0         0         0         0         0         0         0         0
         0         0         0         0         0         0         0         0
         0         0         0         0         0         0         0         0
         0         0         0         0         0         0         0         0
         0         0         0         0         0         0         0         0
         0         0         0         0         0         0         0         0
         0         0         0         0         0         0         0         0
         0         0         0         0         0         0         0         0
         0         0         0         0         0         0         0         0
         0         0         0         0         0         0         0         0
         0         0         0         0         0         0         0         0
         0         0         0         0         0         0         0         0
         0         0         0         0         0         0         0         0
         0         0         0         0         0         0         0         0
         0         0         0         0         0         0         0         0
         0         0         0         0         0         0         0         0
         0         0         0         0         0         0         0         0
         0         0         0         0         0         0         0         0
         0         0         0         0         0         0         0         0
         0         0         0         0         0         0         0         0
         0         0         0         0         0         0         0         0
         0         0         0         0         0         0         0         0
         0         0         0         0         0         0         0         0
         0         0         0         0         0         0         0         0
         0         0         0         0         0         0         0         0
         0         0         0         0         0         0         0         0
         0         0         0         0         0         0         0         0
         0         0         0         0         0         0         0         0
         0         0         0         0         0         0         0         0
         0         0         0         0         0         0         0         0
         0         0         0         0         0         0         0         0
         0         0         0         0         0         0         0         0
         0         0         0         0         0         0         0         0
         0         0         0         0         0         0         0         0
         0         0         0         0         0         0         0         0
         0         0         0         0         0         0         0         0
         0         0         0         0         0         0         0         0
         0         0         0         0         0         0         0         0
         0         0         0         0         0         0         0         0
         0         0         0         0         0         0         0         0
         0         0         0         0         0         0         0         0
         0         0         0         0         0         0         0         0
         0         0         0         0         0         0         0         0
         0         0         0         0         0         0         0         0
         0         0         0         0         0         0         0         0
         0         0         0         0         0         0         0         0
         0         0         0         0         0         0         0         0
         0         0         0         0         0         0         0         0
         0         0         0         0         0         0         0         0
         0         0         0         0         0         0         0         0
         0         0         0         0         0         0         0         0
         0         0         0         0         0         0         0         0
         0         0         0         0         0         0         0         0
         0         0         0         0         0         0         0         0
         0         0         0         0         0         0         0         0
         0         0         0         0         0         0         0         0
         0         0         0         0         0         0         0         0
         0         0         0         0         0         0         0         0
         0         0         0         0         0         0         0         0
         0         0         0         0         0         0         0         0
         0         0         0         0         0         0         0         0
         0         0         0         0         0         0         0         0
         0         0         0         0         0         0         0         0
         0         0         0         0         0         0         0         0
         0         0         0         0         0         0         0         0
         0         0         0         0         0         0         0         0
         0         0         0         0         0         0         0         0
         0         0         0         0         0         0         0         0
         0         0         0         0         0         0         0         0
         0         0         0         0         0         0         0         0
         0         0         0         0         0         0         0         0
         0         0         0         0         0         0         0         0
         0         0         0         0         0         0         0         0
         0         0         0         0         0         0         0         0
         0         0         0         0         0         0         0         0
         0         0         0         0         0         0         0         0
         0         0         0         0         0         0         0         0
         0         0         0         0         0         0         0         0
         0         0         0         0         0         0         0         0
         0         0         0         0         0         0         0         0
         0         0         0         0         0         0         0         0
         0         0         0         0         0         0         0         0
         0         0         0         0         0         0         0         0
         0         0         0         0         0         0         0         0
         0         0         0         0         0         0         0         0
         0         0         0         0         0         0         0         0
         0         0         0         0         0         0         0         0
         0         0         0         0         0         0         0         0
         0         0         0         0         0         0         0         0
         0         0         0         0         0         0         0         0
         0         0         0         0         0         0         0         0
         0         0         0         0         0         0         0         0
         0         0         0         0         0         0         0         0
         0         0         0         0         0         0         0         0
         0         0         0         0         0         0         0         0
         0         0         0         0         0         0         0         0
         0         0         0         0         0         0         0         0
         0         0         0         0         0         0         0         0
         0         0         0         0         0         0         0         0
         0         0         0         0         0         0         0         0
         0         0         0         0         0         0         0         0
         0         0         0         0         0         0         0         0
         0         0         0         0         0         0         0         0
         0         0         0         0         0         0         0         0
         0         0         0         0         0         0         0         0
         0         0         0         0         0         0         0         0
         0         0         0         0         0         0         0         0
         0         0         0         0         0         0         0         0
         0         0         0         0         0         0         0         0
         0         0         0         0         0         0         0         0
         0         0         0         0         0         0         0         0
         0         0         0         0         0         0         0         0
         0         0         0         0         0         0         0         0
         0         0         0         0         0         0         0         0
         0         0         0         0         0         0         0         0
         0         0         0         0         0         0         0         0
         0         0         0         0         0         0         0         0
         0         0         0         0         0         0         0         0
         0         0         0         0         0         0         0         0
         0         0         0         0         0         0         0         0
         0         0         0         0         0         0         0         0
         0         0         0         0         0         0         0         0
         0         0         0         0         0         0         0         0
         0         0         0         0         0         0         0         0
         0         0         0         0         0         0         0         0
         0         0         0         0         0         0         0         0
         0         0         0         0         0         0         0         0
         0         0         0         0         0         0         0         0
         0         0         0         0         0         0         0         0
         0         0         0         0         0         0         0         0
         0         0         0         0         0         0         0         0
         0         0         0         0         0         0         0         0
         0         0         0         0         0         0         0         0
         0         0         0         0         0         0         0         0
         0         0         0         0         0         0         0         0
         0         0         0         0         0         0         0         0
         0         0         0         0         0         0         0         0
         0         0         0         0         0         0         0         0
         0         0         0         0         0         0         0         0
         0         0         0         0         0         0         0         0
         0         0         0         0         0         0         0         0
         0         0         0         0         0         0         0         0
         0         0         0         0         0         0         0         0
         0         0         0         0         0         0         0         0
         0         0         0         0         0         0         0         0
         0         0         0         0         0         0         0         0
         0         0         0         0         0         0         0         0
         0         0         0         0         0         0         0         0
         0         0         0         0         0         0         0         0
         0         0         0         0         0         0         0         0
         0         0         0         0         0         0         0         0
         0         0         0         0         0         0         0         0
         0         0         0         0         0         0         0         0
         0         0         0         0         0         0         0         0
         0         0         0         0         0         0         0         0
         0         0         0         0         0         0         0         0
         0         0         0         0         0         0         0         0
         0         0         0         0         0         0         0         0
         0         0         0         0         0         0         0         0
         0         0         0         0         0         0         0         0
         0         0         0         0         0         0         0         0
         0         0         0         0         0         0         0         0
         0         0         0         0         0         0         0         0
         0         0         0         0         0         0         0         0
         0         0         0         0         0         0         0         0
         0         0         0         0         0         0         0         0
         0         0         0         0         0         0         0         0
         0         0         0         0         0         0         0         0
         0         0         0         0         0         0         0         0
         0         0         0         0         0         0         0         0
         0         0         0         0         0         0         0         0
         0         0         0         0         0         0         0         0
         0         0         0         0         0         0         0         0
         0         0         0         0         0         0         0         0
         0         0         0         0         0         0         0         0
         0         0         0         0         0         0         0         0
         0         0         0         0         0         0         0         0
         0         0         0         0         0         0         0         0
         0         0         0         0         0         0         0         0
         0         0         0         0         0         0         0         0
         0         0         0         0         0         0         0         0
         0         0         0         0         0         0         0         0
         0         0         0         0         0         0         0         0
         0         0         0         0         0         0         0         0
         0         0         0         0         0         0         0         0
         0         0         0         0         0         0         0         0
         0         0         0         0         0         0         0         0
         0         0         0         0         0         0         0         0
         0         0         0         0         0         0         0         0
         0         0         0         0         0         0         0         0
         0         0         0         0         0         0         0         0
         0         0         0         0         0         0         0         0
         0         0         0         0         0         0         0         0
         0         0         0         0         0         0         0         0
         0         0         0         0         0         0         0         0
         0         0         0         0         0         0         0         0
         0         0         0         0         0         0         0         0
         0         0         0         0         0         0         0         0
         0         0         0         0         0         0         0         0
         0         0         0         0         0         0         0         0
         0         0         0         0         0         0         0         0
         0         0         0         0         0         0         0         0
         0         0         0         0         0         0         0         0
         0         0         0         0         0         0         0         0
         0         0         0         0         0         0         0         0
         0         0         0         0         0         0         0         0
         0         0         0         0         0         0         0         0
         0         0         0         0         0         0         0         0
         0         0         0         0         0         0         0         0
         0         0         0         0         0         0         0         0
         0         0         0         0         0         0         0         0
         0         0         0         0         0         0         0         0
         0         0         0         0         0         0         0         0
         0         0         0         0         0         0         0         0
         0         0         0         0         0         0         0         0
         0         0         0         0         0         0         0         0
         0         0         0         0         0         0         0         0
         0         0         0         0         0         0         0         0
         0         0         0         0         0         0         0         0
         0         0         0         0         0         0         0         0
         0         0         0         0         0         0         0         0
         0         0         0         0         0         0         0         0
         0         0         0         0         0         0         0         0
         0         0         0         0         0         0         0         0
         0         0         0         0         0         0         0         0
         0         0         0         0         0         0         0         0
         0         0         0         0         0         0         0         0
         0         0         0         0         0         0         0         0
         0         0         0         0         0         0         0         0
         0         0         0         0         0         0         0         0
         0         0         0         0         0         0         0         0
         0         0         0         0         0         0         0         0
         0         0         0         0         0         0         0         0
         0         0         0         0         0         0         0         0
         0         0         0         0         0         0         0         0
         0         0         0         0         0         0         0         0
         0         0         0         0         0         0         0         0
         0         0         0         0         0         0         0         0
         0         0         0         0         0         0         0         0
         0         0         0         0         0         0         0         0
         0         0         0         0         0         0         0         0
         0         0         0         0         0         0         0         0
         0         0         0         0         0         0         0         0
         0         0         0         0         0         0         0         0
         0         0         0         0         0         0         0         0
         0         0         0         0         0         0         0         0
         0         0         0         0         0         0         0         0
         0         0         0         0         0         0         0         0
         0         0         0         0         0         0         0         0
         0         0         0         0         0         0         0         0
         0         0         0         0         0         0         0         0
         0         0         0         0         0         0         0         0
         0         0         0         0         0         0         0         0
         0         0         0         0         0         0         0         0
         0         0         0         0         0         0         0         0
         0         0         0         0         0         0         0         0
         0         0         0         0         0         0         0         0
         0         0         0         0         0         0         0         0
         0         0         0         0         0         0         0         0
         0         0         0         0         0         0         0         0
         0         0         0         0         0         0         0         0
         0         0         0         0         0         0         0         0
         0         0         0         0         0         0         0         0
         0         0         0         0         0         0         0         0
         0         0         0         0         0         0         0         0
         0         0         0         0         0         0         0         0
         0         0         0         0         0         0         0         0
         0         0         0         0         0         0         0         0
         0         0         0         0         0         0         0         0
         0         0         0         0         0         0         0         0
         0         0         0         0         0         0         0         0
         0         0         0         0         0         0         0         0
         0         0         0         0         0         0         0         0
         0         0         0         0         0         0         0         0
         0         0         0         0         0         0         0         0
         0         0         0         0         0         0         0         0
         0         0         0         0         0         0         0         0
         0         0         0         0         0         0         0         0
         0         0         0         0         0         0         0         0
         0         0         0         0         0         0         0         0
         0         0         0         0         0         0         0         0
         0         0         0         0         0         0         0         0
         0         0         0         0         0         0         0         0
         0         0         0         0         0         0         0         0
         0         0         0         0         0         0         0         0
         0         0         0         0         0         0         0         0
         0         0         0         0         0         0         0         0
         0         0         0         0         0         0         0         0
         0         0         0         0         0         0         0         0
         0         0         0         0         0         0         0         0
         0         0         0         0         0         0         0         0
         0         0         0         0         0         0         0         0
         0         0         0         0         0         0         0         0
         0         0         0         0         0         0         0         0
         0         0         0         0         0         0         0         0
         0         0         0         0         0         0         0         0
         0         0         0         0         0         0         0         0
         0         0         0         0         0         0         0         0
         0         0         0         0         0         0         0         0
         0         0         0         0         0         0         0         0
         0         0         0         0         0         0         0         0
         0         0         0         0         0         0         0         0
         0         0         0         0         0         0         0         0
         0         0         0         0         0         0         0         0
         0         0         0         0         0         0         0         0
         0         0         0         0         0         0         0         0
         0         0         0         0         0         0         0         0
         0         0         0         0         0         0         0         0
         0         0         0         0         0         0         0         0
         0         0         0         0         0         0         0         0
         0         0         0         0         0         0         0         0
         0         0         0         0         0         0         0         0
         0         0         0         0         0         0         0         0
         0         0         0         0         0         0         0         0
         0         0         0         0         0         0         0         0
         0         0         0         0         0         0         0         0
         0         0         0         0         0         0         0         0
         0         0         0         0         0         0         0         0
         0         0         0         0         0         0         0         0
         0         0         0         0         0         0         0         0
         0         0         0         0         0         0         0         0
         0         0         0         0         0         0         0         0
         0         0         0         0         0         0         0         0
         0         0         0         0         0         0         0         0
         0         0         0         0         0         0         0         0
         0         0         0         0         0         0         0         0
         0         0         0         0         0         0         0         0
         0         0         0         0         0         0         0         0
         0         0         0         0         0         0         0         0
         0         0         0         0         0         0         0         0
         0         0         0         0         0         0         0         0
         0         0         0         0         0         0         0         0
         0         0         0         0         0         0         0         0
         0         0         0         0         0         0         0         0
         0         0         0         0         0         0         0         0
         0         0         0         0         0         0         0         0
         0         0         0         0         0         0         0         0
         0         0         0         0         0         0         0         0
         0         0         0         0         0         0         0         0
         0         0         0         0         0         0         0         0
         0         0         0         0         0         0         0         0
         0         0         0         0         0         0         0         0
         0         0         0         0         0         0         0         0
         0         0         0         0         0         0         0         0
         0         0         0         0         0         0         0         0
         0         0         0         0         0         0         0         0
         0         0         0         0         0         0         0         0
         0         0         0         0         0         0         0         0
         0         0         0         0         0         0         0         0
         0         0         0         0         0         0         0         0
         0         0         0         0         0         0         0         0
         0         0         0         0         0         0         0         0
         0         0         0         0         0         0         0         0
         0         0         0         0         0         0         0         0
         0         0         0         0         0         0         0         0
         0         0         0         0         0         0         0         0
         0         0         0         0         0         0         0         0
         0         0         0         0         0         0         0         0
         0         0         0         0         0         0         0         0
         0         0         0         0         0         0         0         0
         0         0         0         0         0         0         0         0
         0         0         0         0         0         0         0         0
         0         0         0         0         0         0         0         0
         0         0         0         0         0         0         0         0
         0         0         0         0         0         0         0         0
         0         0         0         0         0         0         0         0
         0         0         0         0         0         0         0         0
         0         0         0         0         0         0         0         0
         0         0         0         0         0         0         0         0
         0         0         0         0         0         0         0         0
         0         0         0         0         0         0         0         0
         0         0         0         0         0         0         0         0
         0         0         0         0         0         0         0         0
         0         0         0         0         0         0         0         0
         0         0         0         0         0         0         0         0
         0         0         0         0         0         0         0         0
         0         0         0         0         0         0         0         0
         0         0         0         0         0         0         0         0
         0         0         0         0         0         0         0         0
         0         0         0         0         0         0         0         0
         0         0         0         0         0         0         0         0
         0         0         0         0         0         0         0         0
         0         0         0         0         0         0         0         0
         0         0         0         0         0         0         0         0
         0         0         0         0         0         0         0         0
         0         0         0         0         0         0         0         0
         0         0         0         0         0         0         0         0
         0         0         0         0         0         0         0         0
         0         0         0         0         0         0         0         0
         0         0         0         0         0         0         0         0
         0         0         0         0         0         0         0         0
         0         0         0         0         0         0         0         0
         0         0         0         0         0         0         0         0
         0         0         0         0         0         0         0         0
         0         0         0         0         0         0         0         0
         0         0         0         0         0         0         0         0
         0         0         0         0         0         0         0         0
         0         0         0         0         0         0         0         0
         0         0         0         0         0         0         0         0
         0         0         0         0         0         0         0         0
         0         0         0         0         0         0         0         0
         0         0         0         0         0         0         0         0
         0         0         0         0         0         0         0         0
         0         0         0         0         0         0         0         0
         0         0         0         0         0         0         0         0
         0         0         0         0         0         0         0         0
         0         0         0         0         0         0         0         0
         0         0         0         0         0         0         0         0
         0         0         0         0         0         0         0         0
         0         0         0         0         0         0         0         0
         0         0         0         0         0         0         0         0
         0         0         0         0         0         0         0         0
         0         0         0         0         0         0         0         0
         0         0         0         0         0         0         0         0
         0         0         0         0         0         0         0         0
         0         0         0         0         0         0         0         0
         0         0         0         0         0         0         0         0
         0         0         0         0         0         0         0         0
         0         0         0         0         0         0         0         0
         0         0         0         0         0         0         0         0
         0         0         0         0         0         0         0         0
         0         0         0         0         0         0         0         0
         0         0         0         0         0         0         0         0
         0         0         0         0         0         0         0         0
         0         0         0         0         0         0         0         0
         0         0         0         0         0         0         0         0
         0         0         0         0         0         0         0         0
         0         0         0         0         0         0         0         0
         0         0         0         0         0         0         0         0
         0         0         0         0         0         0         0         0
         0         0         0         0         0         0         0         0
         0         0         0         0         0         0         0         0
         0         0         0         0         0         0         0         0
         0         0         0         0         0         0         0         0
         0         0         0         0         0         0         0         0
         0         0         0         0         0         0         0         0
         0         0         0         0         0         0         0         0
         0         0         0         0         0         0         0         0
         0         0         0         0         0         0         0         0
         0         0         0         0         0         0         0         0
         0         0         0         0         0         0         0         0
         0         0         0         0         0         0         0         0
         0         0         0         0         0         0         0         0
         0         0         0         0         0         0         0         0
         0         0         0         0         0         0         0         0
         0         0         0         0         0         0         0         0
         0         0         0         0         0         0         0         0
         0         0         0         0         0         0         0         0
         0         0         0         0         0         0         0         0
         0         0         0         0         0         0         0         0
         0         0         0         0         0         0         0         0
         0         0         0         0         0         0         0         0
         0         0         0         0         0         0         0         0
         0         0         0         0         0         0         0         0
         0         0         0         0         0         0         0         0
         0         0         0         0         0         0         0         0
         0         0         0         0         0         0         0         0
         0         0         0         0         0         0         0         0
         0         0         0         0         0         0         0         0
         0         0         0         0         0         0         0         0
         0         0         0         0         0         0         0         0
         0         0         0         0         0         0         0         0
         0         0         0         0         0         0         0         0
         0         0         0         0         0         0         0         0
         0         0         0         0         0         0         0         0
         0         0         0         0         0         0         0         0
         0         0         0         0         0         0         0         0
         0         0         0         0         0         0         0         0
         0         0         0         0         0         0         0         0
         0         0         0         0         0         0         0         0
         0         0         0         0         0         0         0         0
         0         0         0         0         0         0         0         0
         0         0         0         0         0         0         0         0
         0         0         0         0         0         0         0         0
         0         0         0         0         0         0         0         0
         0         0         0         0         0         0         0         0
         0         0         0         0         0         0         0         0
         0         0         0         0         0         0         0         0
         0         0         0         0         0         0         0         0
         0         0         0         0         0         0         0         0
         0         0         0         0         0         0         0         0
         0         0         0         0         0         0         0         0
         0         0         0         0         0         0         0         0
         0         0         0         0         0         0         0         0
         0         0         0         0         0         0         0         0
         0         0         0         0         0         0         0         0
         0         0         0         0         0         0         0         0
         0         0         0         0         0         0         0         0
         0         0         0         0         0         0         0         0
         0         0         0         0         0         0         0         0
         0         0         0         0         0         0         0         0
         0         0         0         0         0         0         0         0
         0         0         0         0         0         0         0         0
         0         0         0         0         0         0         0         0
         0         0         0         0         0         0         0         0
         0         0         0         0         0         0         0         0
         0         0         0         0         0         0         0         0
         0         0         0         0         0         0         0         0
         0         0         0         0         0         0         0         0
         0         0         0         0         0         0         0         0
         0         0         0         0         0         0         0         0
         0         0         0         0         0         0         0         0
         0         0         0         0         0         0         0         0
         0         0         0         0         0         0         0         0
         0         0         0         0         0         0         0         0
         0         0         0         0         0         0         0         0
         0         0         0         0         0         0         0         0
         0         0         0         0         0         0         0         0
         0         0         0         0         0         0         0         0
         0         0         0         0         0         0         0         0
         0         0         0         0         0         0         0         0
         0         0         0         0         0         0         0         0
         0         0         0         0         0         0         0         0
         0         0         0         0         0         0         0         0
         0         0         0         0         0         0         0         0
         0         0         0         0         0         0         0         0
         0         0         0         0         0         0         0         0
         0         0         0         0         0         0         0         0
         0         0         0         0         0         0         0         0
         0         0         0         0         0         0         0         0
         0         0         0         0         0         0         0         0
         0         0         0         0         0         0         0         0
         0         0         0         0         0         0         0         0
         0         0         0         0         0         0         0         0
         0         0         0         0         0         0         0         0
         0         0         0         0         0         0         0         0
         0         0         0         0         0         0         0         0
         0         0         0         0         0         0         0         0
         0         0         0         0         0         0         0         0
         0         0         0         0         0         0         0         0
         0         0         0         0         0         0         0         0
         0         0         0         0         0         0         0         0
         0         0         0         0         0         0         0         0
         0         0         0         0         0         0         0         0
         0         0         0         0         0         0         0         0
         0         0         0         0         0         0         0         0
         0         0         0         0         0         0         0         0
         0         0         0         0         0         0         0         0
         0         0         0         0         0         0         0         0
         0         0         0         0         0         0         0         0
         0         0         0         0         0         0         0         0
         0         0         0         0         0         0         0         0
         0         0         0         0         0         0         0         0
         0         0         0         0         0         0         0         0
         0         0         0         0         0         0         0         0
         0         0         0         0         0         0         0         0
         0         0         0         0         0         0         0         0
         0         0         0         0         0         0         0         0
         0         0         0         0         0         0         0         0
         0         0         0         0         0         0         0         0
         0         0         0         0         0         0         0         0
         0         0         0         0         0         0         0         0
         0         0         0         0         0         0         0         0
         0         0         0         0         0         0         0         0
         0         0         0         0         0         0         0         0
         0         0         0         0         0         0         0         0
         0         0         0         0         0         0         0         0
         0         0         0         0         0         0         0         0
         0         0         0         0         0         0         0         0
         0         0         0         0         0         0         0         0
         0         0         0         0         0         0         0         0
         0         0         0         0         0         0         0         0
         0         0         0         0         0         0         0         0
         0         0         0         0         0         0         0         0
         0         0         0         0         0         0         0         0
         0         0         0         0         0         0         0         0
         0         0         0         0         0         0         0         0
         0         0         0         0         0         0         0         0
         0         0         0         0         0         0         0         0
         0         0         0         0         0         0         0         0
         0         0         0         0         0         0         0         0
         0         0         0         0         0         0         0         0
         0         0         0         0         0         0         0         0
         0         0         0         0         0         0         0         0
         0         0         0         0         0         0         0         0
         0         0         0         0         0         0         0         0
         0         0         0         0         0         0         0         0
         0         0         0         0         0         0         0         0
         0         0         0         0         0         0         0         0
         0         0         0         0         0         0         0         0
         0         0         0         0         0         0         0         0
         0         0         0         0         0         0         0         0
         0         0         0         0         0         0         0         0
         0         0         0         0         0         0         0         0
         0         0         0         0         0         0         0         0
         0         0         0         0         0         0         0         0
         0         0         0         0         0         0         0         0
         0         0         0         0         0         0         0         0
         0         0         0         0         0         0         0         0
         0         0         0         0         0         0         0         0
         0         0         0         0         0         0         0         0
         0         0         0         0         0         0         0         0
         0         0         0         0         0         0         0         0
         0         0         0         0         0         0         0         0
         0         0         0         0         0         0         0         0
         0         0         0         0         0         0         0         0
         0         0         0         0         0         0         0         0
         0         0         0         0         0         0         0         0
         0         0         0         0         0         0         0         0
         0         0         0         0         0         0         0         0
         0         0         0         0         0         0         0         0
         0         0         0         0         0         0         0         0
         0         0         0         0         0         0         0         0
         0         0         0         0         0         0         0         0
         0         0         0         0         0         0         0         0
         0         0         0         0         0         0         0         0
         0         0         0         0         0         0         0         0
         0         0         0         0         0         0         0         0
         0         0         0         0         0         0         0         0
         0         0         0         0         0         0         0         0
         0         0         0         0         0         0         0         0
         0         0         0         0         0         0         0         0
         0         0         0         0         0         0         0         0
         0         0         0         0         0         0         0         0
         0         0         0         0         0         0         0         0
         0         0         0         0         0         0         0         0
         0         0         0         0         0         0         0         0
         0         0         0         0         0         0         0         0
         0         0         0         0         0         0         0         0
         0         0         0         0         0         0         0         0
         0         0         0         0         0         0         0         0
         0         0         0         0         0         0         0         0
         0         0         0         0         0         0         0         0
         0         0         0         0         0         0         0         0
         0         0         0         0         0         0         0         0
         0         0         0         0         0         0         0         0
         0         0         0         0         0         0         0         0
         0         0         0         0         0         0         0         0
         0         0         0         0         0         0         0         0
         0         0         0         0         0         0         0         0
         0         0         0         0         0         0         0         0
         0         0         0         0         0         0         0         0
         0         0         0         0         0         0         0         0
         0         0         0         0         0         0         0         0
         0         0         0         0         0         0         0         0
         0         0         0         0         0         0         0         0
         0         0         0         0         0         0         0         0
         0         0         0         0         0         0         0         0
         0         0         0         0         0         0         0         0
         0         0         0         0         0         0         0         0
         0         0         0         0         0         0         0         0
         0         0         0         0         0         0         0         0
         0         0         0         0         0         0         0         0
         0         0         0         0         0         0         0         0
         0         0         0         0         0         0         0         0
         0         0         0         0         0         0         0         0
         0         0         0         0         0         0         0         0
         0         0         0         0         0         0         0         0
         0         0         0         0         0         0         0         0
         0         0         0         0         0         0         0         0
         0         0         0         0         0         0         0         0
         0         0         0         0         0         0         0         0
         0         0         0         0         0         0         0         0
         0         0         0         0         0         0         0         0
         0         0         0         0         0         0         0         0
         0         0         0         0         0         0         0         0
         0         0         0         0         0         0         0         0
         0         0         0         0         0         0         0         0
         0         0         0         0         0         0         0         0
         0         0         0         0         0         0         0         0
         0         0         0         0         0         0         0         0
         0         0         0         0         0         0         0         0
         0         0         0         0         0         0         0         0
         0         0         0         0         0         0         0         0
         0         0         0         0         0         0         0         0
         0         0         0         0         0         0         0         0
         0         0         0         0         0         0         0         0
         0         0         0         0         0         0         0         0
         0         0         0         0         0         0         0         0
         0         0         0         0         0         0         0         0
         0         0         0         0         0         0         0         0
         0         0         0         0         0         0         0         0
         0         0         0         0         0         0         0         0
         0         0         0         0         0         0         0         0
         0         0         0         0         0         0         0         0
         0         0         0         0         0         0         0         0
         0         0         0         0         0         0         0         0
         0         0         0         0         0         0         0         0
         0         0         0         0         0         0         0         0
         0         0         0         0         0         0         0         0
         0         0         0         0         0         0         0         0
         0         0         0         0         0         0         0         0
         0         0         0         0         0         0         0         0
         0         0         0         0         0         0         0         0
         0         0         0         0         0         0         0         0
         0         0         0         0         0         0         0         0
         0         0         0         0         0         0         0         0
         0         0         0         0         0         0         0         0
         0         0         0         0         0         0         0         0
         0         0         0         0         0         0         0         0
         0         0         0         0         0         0         0         0
         0         0         0         0         0         0         0         0
         0         0         0         0         0         0         0         0
         0         0         0         0         0         0         0         0
         0         0         0         0         0         0         0         0
         0         0         0         0         0         0         0         0
         0         0         0         0         0         0         0         0
         0         0         0         0         0         0         0         0
         0         0         0         0         0         0         0         0
         0         0         0         0         0         0         0         0
         0         0         0         0         0         0         0         0
         0         0         0         0         0         0         0         0
         0         0         0         0         0         0         0         0
         0         0         0         0         0         0         0         0
         0         0         0         0         0         0         0         0
         0         0         0         0         0         0         0         0
         0         0         0         0         0         0         0         0
         0         0         0         0         0         0         0         0
         0         0         0         0         0         0         0         0
         0         0         0         0         0         0         0         0
         0         0         0         0         0         0         0         0
         0         0         0         0         0         0         0         0
         0         0         0         0         0         0         0         0
         0         0         0         0         0         0         0         0
         0         0         0         0         0         0         0         0
         0         0         0         0         0         0         0         0
         0         0         0         0         0         0         0         0
         0         0         0         0         0         0         0         0
         0         0         0         0         0         0         0         0
         0         0         0         0         0         0         0         0
         0         0         0         0         0         0         0         0
         0         0         0         0         0         0         0         0
         0         0         0         0         0         0         0         0
         0         0         0         0         0         0         0         0
         0         0         0         0         0         0         0         0
         0         0         0         0         0         0         0         0
         0         0         0         0         0         0         0         0
         0         0         0         0         0         0         0         0
         0         0         0         0         0         0         0         0
         0         0         0         0         0         0         0         0
         0         0         0         0         0         0         0         0
         0         0         0         0         0         0         0         0
         0         0         0         0         0         0         0         0
         0         0         0         0         0         0         0         0
         0         0         0         0         0         0         0         0
         0         0         0         0         0         0         0         0
         0         0         0         0         0         0         0         0
         0         0         0         0         0         0         0         0
         0         0         0         0         0         0         0         0
         0         0         0         0         0         0         0         0
         0         0         0         0         0         0         0         0
         0         0         0         0         0         0         0         0
         0         0         0         0         0         0         0         0
         0         0         0         0         0         0         0         0
         0         0         0         0         0         0         0         0
         0         0         0         0         0         0         0         0
         0         0         0         0         0         0         0         0
         0         0         0         0         0         0         0         0
         0         0         0         0         0         0         0         0
         0         0         0         0         0         0         0         0
         0         0         0         0         0         0         0         0
         0         0         0         0         0         0         0         0
         0         0         0         0         0         0         0         0
         0         0         0         0         0         0         0         0
         0         0         0         0         0         0         0         0
         0         0         0         0         0         0         0         0
         0         0         0         0         0         0         0         0
         0         0         0         0         0         0         0         0
         0         0         0         0         0         0         0         0
         0         0         0         0         0         0         0         0
         0         0         0         0         0         0         0         0
         0         0         0         0         0         0         0         0
         0         0         0         0         0         0         0         0
         0         0         0         0         0         0         0         0
         0         0         0         0         0         0         0         0
         0         0         0         0         0         0         0         0
         0         0         0         0         0         0         0         0
         0         0         0         0         0         0         0         0
         0         0         0         0         0         0         0         0
         0         0         0         0         0         0         0         0
         0         0         0         0         0         0         0         0
         0         0         0         0         0         0         0         0
         0         0         0         0         0         0         0         0
         0         0         0         0         0         0         0         0
         0         0         0         0         0         0         0         0
         0         0         0         0         0         0         0         0
         0         0         0         0         0         0         0         0
         0         0         0         0         0         0         0         0
         0         0         0         0         0         0         0         0
         0         0         0         0         0         0         0         0
         0         0         0         0         0         0         0         0
         0         0         0         0         0         0         0         0
         0         0         0         0         0         0         0         0
         0         0         0         0         0         0         0         0
         0         0         0         0         0         0         0         0
         0         0         0         0         0         0         0         0
         0         0         0         0         0         0         0         0
         0         0         0         0         0         0         0         0
         0         0         0         0         0         0         0         0
         0         0         0         0         0         0         0         0
         0         0         0         0         0         0         0         0
         0         0         0         0         0         0         0         0
         0         0         0         0         0         0         0         0
         0         0         0         0         0         0         0         0
         0         0         0         0         0         0         0         0
         0         0         0         0         0         0         0         0
         0         0         0         0         0         0         0         0
         0         0         0         0         0         0         0         0
         0         0         0         0         0         0         0         0
         0         0         0         0         0         0         0         0
         0         0         0         0         0         0         0         0
         0         0         0         0         0         0         0         0
         0         0         0         0         0         0         0         0
         0         0         0         0         0         0         0         0
         0         0         0         0         0         0         0         0
         0         0         0         0         0         0         0         0
         0         0         0         0         0         0         0         0
         0         0         0         0         0         0         0         0
         0         0         0         0         0         0         0         0
         0         0         0         0         0         0         0         0
         0         0         0         0         0         0         0         0
         0         0         0         0         0         0         0         0
         0         0         0         0         0         0         0         0
         0         0         0         0         0         0         0         0
         0         0         0         0         0         0         0         0
         0         0         0         0         0         0         0         0
         0         0         0         0         0         0         0         0
         0         0         0         0         0         0         0         0
         0         0         0         0         0         0         0         0
         0         0         0         0         0         0         0         0
         0         0         0         0         0         0         0         0
         0         0         0         0         0         0         0         0
         0         0         0         0         0         0         0         0
         0         0         0         0         0         0         0         0
         0         0         0         0         0         0         0         0
         0         0         0         0         0         0         0         0
         0         0         0         0         0         0         0         0
         0         0         0         0         0         0         0         0
         0         0         0         0         0         0         0         0
         0         0         0         0         0         0         0         0
         0         0         0         0         0         0         0         0
         0         0         0         0         0         0         0         0
         0         0         0         0         0         0         0         0
         0         0         0         0         0         0         0         0
         0         0         0         0         0         0         0         0
         0         0         0         0         0         0         0         0
         0         0         0         0         0         0         0         0
         0         0         0         0         0         0         0         0
         0         0         0         0         0         0         0         0
         0         0         0         0         0         0         0         0
         0         0         0         0         0         0         0         0
         0         0         0         0         0         0         0         0
         0         0         0         0         0         0         0         0
         0         0         0         0         0         0         0         0
         0         0         0         0         0         0         0         0
         0         0         0         0         0         0         0         0
         0         0         0         0         0         0         0         0
         0         0         0         0         0         0         0         0
         0         0         0         0         0         0         0         0
         0         0         0         0         0         0         0         0
         0         0         0         0         0         0         0         0
         0         0         0         0         0         0         0         0
         0         0         0         0         0         0         0         0
         0         0         0         0         0         0         0         0
         0         0         0         0         0         0         0         0
         0         0         0         0         0         0         0         0
         0         0         0         0         0         0         0         0
         0         0         0         0         0         0         0         0
         0         0         0         0         0         0         0         0
         0         0         0         0         0         0         0         0
         0         0         0         0         0         0         0         0
         0         0         0         0         0         0         0         0
         0         0         0         0         0         0         0         0
         0         0         0         0         0         0         0         0
         0         0         0         0         0         0         0         0
         0         0         0         0         0         0         0         0
         0         0         0         0         0         0         0         0
         0         0         0         0         0         0         0         0
         0         0         0         0         0         0         0         0
         0         0         0         0         0         0         0         0
         0         0         0         0         0         0         0         0
         0         0         0         0         0         0         0         0
         0         0         0         0         0         0         0         0
         0         0         0         0         0         0         0         0
         0         0         0         0         0         0         0         0
         0         0         0         0         0         0         0         0
         0         0         0         0         0         0         0         0
         0         0         0         0         0         0         0         0
         0         0         0         0         0         0         0         0
         0         0         0         0         0         0         0         0
         0         0         0         0         0         0         0         0
         0         0         0         0         0         0         0         0
         0         0         0         0         0         0         0         0
         0         0         0         0         0         0         0         0
         0         0         0         0         0         0         0         0
         0         0         0         0         0         0         0         0
         0         0         0         0         0         0         0         0
         0         0         0         0         0         0         0         0
         0         0         0         0         0         0         0         0
         0         0         0         0         0         0         0         0
         0         0         0         0         0         0         0         0
         0         0         0         0         0         0         0         0
         0         0         0         0         0         0         0         0
         0         0         0         0         0         0         0         0
         0         0         0         0         0         0         0         0
         0         0         0         0         0         0         0         0
         0         0         0         0         0         0         0         0
         0         0         0         0         0         0         0         0
         0         0         0         0         0         0         0         0
         0         0         0         0         0         0         0         0
         0         0         0         0         0         0         0         0
         0         0         0         0         0         0         0         0
         0         0         0         0         0         0         0         0
         0         0         0         0         0         0         0         0
         0         0         0         0         0         0         0         0
         0         0         0         0         0         0         0         0
         0         0         0         0         0         0         0         0
         0         0         0         0         0         0         0         0
         0         0         0         0         0         0         0         0
         0         0         0         0         0         0         0         0
         0         0         0         0         0         0         0         0
         0         0         0         0         0         0         0         0
         0         0         0         0         0         0         0         0
         0         0         0         0         0         0         0         0
         0         0         0         0         0         0         0         0
         0         0         0         0         0         0         0         0
         0         0         0         0         0         0         0         0
         0         0         0         0         0         0         0         0
         0         0         0         0         0         0         0         0
         0         0         0         0         0         0         0         0
         0         0         0         0         0         0         0         0
         0         0         0         0         0         0         0         0
         0         0         0         0         0         0         0         0
         0         0         0         0         0         0         0         0
         0         0         0         0         0         0         0         0
         0         0         0         0         0         0         0         0
         0         0         0         0         0         0         0         0
         0         0         0         0         0         0         0         0
         0         0         0         0         0         0         0         0
         0         0         0         0         0         0         0         0
         0         0         0         0         0         0         0         0
         0         0         0         0         0         0         0         0
         0         0         0         0         0         0         0         0
         0         0         0         0         0         0         0         0
         0         0         0         0         0         0         0         0
         0         0         0         0         0         0         0         0
         0         0         0         0         0         0         0         0
         0         0         0         0         0         0         0         0
         0         0         0         0         0         0         0         0
         0         0         0         0         0         0         0         0
         0         0         0         0         0         0         0         0
         0         0         0         0         0         0         0         0
         0         0         0         0         0         0         0         0
         0         0         0         0         0         0         0         0
         0         0         0         0         0         0         0         0
         0         0         0         0         0         0         0         0
         0         0         0         0         0         0         0         0
         0         0         0         0         0         0         0         0
         0         0         0         0         0         0         0         0
         0         0         0         0         0         0         0         0
         0         0         0         0         0         0         0         0
         0         0         0         0         0         0         0         0
         0         0         0         0         0         0         0         0
         0         0         0         0         0         0         0         0
         0         0         0         0         0         0         0         0
         0         0         0         0         0         0         0         0
         0         0         0         0         0         0         0         0
         0         0         0         0         0         0         0         0
         0         0         0         0         0         0         0         0
         0         0         0         0         0         0         0         0
         0         0         0         0         0         0         0         0
         0         0         0         0         0         0         0         0
         0         0         0         0         0         0         0         0
         0         0         0         0         0         0         0         0
         0         0         0         0         0         0         0         0
         0         0         0         0         0         0         0         0
         0         0         0         0         0         0         0         0
         0         0         0         0         0         0         0         0
         0         0         0         0         0         0         0         0
         0         0         0         0         0         0         0         0
         0         0         0         0         0         0         0         0
         0         0         0         0         0         0         0         0
         0         0         0         0         0         0         0         0
         0         0         0         0         0         0         0         0
         0         0         0         0         0         0         0         0
         0         0         0         0         0         0         0         0
         0         0         0         0         0         0         0         0
         0         0         0         0         0         0         0         0
         0         0         0         0         0         0         0         0
         0         0         0         0         0         0         0         0
         0         0         0         0         0         0         0         0
         0         0         0         0         0         0         0         0
         0         0         0         0         0         0         0         0
         0         0         0         0         0         0         0         0
         0         0         0         0         0         0         0         0
         0         0         0         0         0         0         0         0
         0         0         0         0         0         0         0         0
         0         0         0         0         0         0         0         0
         0         0         0         0         0         0         0         0
         0         0         0         0         0         0         0         0
         0         0         0         0         0         0         0         0
         0         0         0         0         0         0         0         0
         0         0         0         0         0         0         0         0
         0         0         0         0         0         0         0         0
         0         0         0         0         0         0         0         0
         0         0         0         0         0         0         0         0
         0         0         0         0         0         0         0         0
         0         0         0         0         0         0         0         0
         0         0         0         0         0         0         0         0
         0         0         0         0         0         0         0         0
         0         0         0         0         0         0         0         0
         0         0         0         0         0         0         0         0
         0         0         0         0         0         0         0         0
         0         0         0         0         0         0         0         0
         0         0         0         0         0         0         0         0
         0         0         0         0         0         0         0         0
         0         0         0         0         0         0         0         0
         0         0         0         0         0         0         0         0
         0         0         0         0         0         0         0         0
         0         0         0         0         0         0         0         0
         0         0         0         0         0         0         0         0
         0         0         0         0         0         0         0         0
         0         0         0         0         0         0         0         0
         0         0         0         0         0         0         0         0
         0         0         0         0         0         0         0         0
         0         0         0         0         0         0         0         0
         0         0         0         0         0         0         0         0
         0         0         0         0         0         0         0         0
         0         0         0         0         0         0         0         0
         0         0         0         0         0         0         0         0
         0         0         0         0         0         0         0         0
         0         0         0         0         0         0         0         0
         0         0         0         0         0         0         0         0
         0         0         0         0         0         0         0         0
         0         0         0         0         0         0         0         0
         0         0         0         0         0         0         0         0
         0         0         0         0         0         0         0         0
         0         0         0         0         0         0         0         0
         0         0         0         0         0         0         0         0
         0         0         0         0         0         0         0         0
         0         0         0         0         0         0         0         0
         0         0         0         0         0         0         0         0
         0         0         0         0         0         0         0         0
         0         0         0         0         0         0         0         0
         0         0         0         0         0         0         0         0
         0         0         0         0         0         0         0         0
         0         0         0         0         0         0         0         0
         0         0         0         0         0         0         0         0
         0         0         0         0         0         0         0         0
         0         0         0         0         0         0         0         0
         0         0         0         0         0         0         0         0
         0         0         0         0         0         0         0         0
         0         0         0         0         0         0         0         0
         0         0         0         0         0         0         0         0
         0         0         0         0         0         0         0         0
         0         0         0         0         0         0         0         0
         0         0         0         0         0         0         0         0
         0         0         0         0         0         0         0         0
         0         0         0         0         0         0         0         0
         0         0         0         0         0         0         0         0
         0         0         0         0         0         0         0         0
         0         0         0         0         0         0         0         0
         0         0         0         0         0         0         0         0
         0         0         0         0         0         0         0         0
         0         0         0         0         0         0         0         0
         0         0         0         0         0         0         0         0
         0         0         0         0         0         0         0         0
         0         0         0         0         0         0         0         0
         0         0         0         0         0         0         0         0
         0         0         0         0         0         0         0         0
         0         0         0         0         0         0         0         0
         0         0         0         0         0         0         0         0
         0         0         0         0         0         0         0         0
         0         0         0         0         0         0         0         0
         0         0         0         0         0         0         0         0
         0         0         0         0         0         0         0         0
         0         0         0         0         0         0         0         0
         0         0         0         0         0         0         0         0
         0         0         0         0         0         0         0         0
         0         0         0         0         0         0         0         0
         0         0         0         0         0         0         0         0
         0         0         0         0         0         0         0         0
         0         0         0         0         0         0         0         0
         0         0         0         0         0         0         0         0
         0         0         0         0         0         0         0         0
         0         0         0         0         0         0         0         0
         0         0         0         0         0         0         0         0
         0         0         0         0         0         0         0         0
         0         0         0         0         0         0         0         0
         0         0         0         0         0         0         0         0
         0         0         0         0         0         0         0         0
         0         0         0         0         0         0         0         0
         0         0         0         0         0         0         0         0
         0         0         0         0         0         0         0         0
         0         0         0         0         0         0         0         0
         0         0         0         0         0         0         0         0
         0         0         0         0         0         0         0         0
         0         0         0         0         0         0         0         0
         0         0         0         0         0         0         0         0
         0         0         0         0         0         0         0         0
         0         0         0         0         0         0         0         0
         0         0         0         0         0         0         0         0
         0         0         0         0         0         0         0         0
         0         0         0         0         0         0         0         0
         0         0         0         0         0         0         0         0
         0         0         0         0         0         0         0         0
         0         0         0         0         0         0         0         0
         0         0         0         0         0         0         0         0
         0         0         0         0         0         0         0         0
         0         0         0         0         0         0         0         0
         0         0         0         0         0         0         0         0
         0         0         0         0         0         0         0         0
         0         0         0         0         0         0         0         0
         0         0         0         0         0         0         0         0
         0         0         0         0         0         0         0         0
         0         0         0         0         0         0         0         0
         0         0         0         0         0         0         0         0
         0         0         0         0         0         0         0         0
         0         0         0         0         0         0         0         0
         0         0         0         0         0         0         0         0
         0         0         0         0         0         0         0         0
         0         0         0         0         0         0         0         0
         0         0         0         0         0         0         0         0
         0         0         0         0         0         0         0         0
         0         0         0         0         0         0         0         0
         0         0         0         0         0         0         0         0
         0         0         0         0         0         0         0         0
         0         0         0         0         0         0         0         0
         0         0         0         0         0         0         0         0
         0         0         0         0         0         0         0         0
         0         0         0         0         0         0         0         0
         0         0         0         0         0         0         0         0
         0         0         0         0         0         0         0         0
         0         0         0         0         0         0         0         0
         0         0         0         0         0         0         0         0
         0         0         0         0         0         0         0         0
         0         0         0         0         0         0         0         0
         0         0         0         0         0         0         0         0
         0         0         0         0         0         0         0         0
         0         0         0         0         0         0         0         0
         0         0         0         0         0         0         0         0
         0         0         0         0         0         0         0         0
         0         0         0         0         0         0         0         0
         0         0         0         0         0         0         0         0
         0         0         0         0         0         0         0         0
         0         0         0         0         0         0         0         0
         0         0         0         0         0         0         0         0
         0         0         0         0         0         0         0         0
         0         0         0         0         0         0         0         0
         0         0         0         0         0         0         0         0
         0         0         0         0         0         0         0         0
         0         0         0         0         0         0         0         0
         0         0         0         0         0         0         0         0
         0         0         0         0         0         0         0         0
         0         0         0         0         0         0         0         0
         0         0         0         0         0         0         0         0
         0         0         0         0         0         0         0         0
         0         0         0         0         0         0         0         0
         0         0         0         0         0         0         0         0
         0         0         0         0         0         0         0         0
         0         0         0         0         0         0         0         0
         0         0         0         0         0         0         0         0
         0         0         0         0         0         0         0         0
         0         0         0         0         0         0         0         0
         0         0         0         0         0         0         0         0
         0         0         0         0         0         0         0         0
         0         0         0         0         0         0         0         0
         0         0         0         0         0         0         0         0
         0         0         0         0         0         0         0         0
         0         0         0         0         0         0         0         0
         0         0         0         0         0         0         0         0
         0         0         0         0         0         0         0         0
         0         0         0         0         0         0         0         0
         0         0         0         0         0         0         0         0
         0         0         0         0         0         0         0         0
         0         0         0         0         0         0         0         0
         0         0         0         0         0         0         0         0
         0         0         0         0         0         0         0         0
         0         0         0         0         0         0         0         0
         0         0         0         0         0         0         0         0
         0         0         0         0         0         0         0         0
         0         0         0         0         0         0         0         0
         0         0         0         0         0         0         0         0
         0         0         0         0         0         0         0         0
         0         0         0         0         0         0         0         0
         0         0         0         0         0         0         0         0
         0         0         0         0         0         0         0         0
         0         0         0         0         0         0         0         0
         0         0         0         0         0         0         0         0
         0         0         0         0         0         0         0         0
         0         0         0         0         0         0         0         0
         0         0         0         0         0         0         0         0
         0         0         0         0         0         0         0         0
         0         0         0         0         0         0         0         0
         0         0         0         0         0         0         0         0
         0         0         0         0         0         0         0         0
         0         0         0         0         0         0         0         0
         0         0         0         0         0         0         0         0
         0         0         0         0         0         0         0         0
         0         0         0         0         0         0         0         0
         0         0         0         0         0         0         0         0
         0         0         0         0         0         0         0         0
         0         0         0         0         0         0         0         0
         0         0         0         0         0         0         0         0
         0         0         0         0         0         0         0         0
         0         0         0         0         0         0         0         0
         0         0         0         0         0         0         0         0
         0         0         0         0         0         0         0         0
         0         0         0         0         0         0         0         0
         0         0         0         0         0         0         0         0
         0         0         0         0         0         0         0         0
         0         0         0         0         0         0         0         0
         0         0         0         0         0         0         0         0
         0         0         0         0         0         0         0         0
         0         0         0         0         0         0         0         0
         0         0         0         0         0         0         0         0
         0         0         0         0         0         0         0         0
         0         0         0         0         0         0         0         0
         0         0         0         0         0         0         0         0
         0         0         0         0         0         0         0         0
         0         0         0         0         0         0         0         0
         0         0         0         0         0         0         0         0
         0         0         0         0         0         0         0         0
         0         0         0         0         0         0         0         0
         0         0         0         0         0         0         0         0
         0         0         0         0         0         0         0         0
         0         0         0         0         0         0         0         0
         0         0         0         0         0         0         0         0
         0         0         0         0         0         0         0         0
         0         0         0         0         0         0         0         0
         0         0         0         0         0         0         0         0
         0         0         0         0         0         0         0         0
         0         0         0         0         0         0         0         0
         0         0         0         0         0         0         0         0
         0         0         0         0         0         0         0         0
         0         0         0         0         0         0         0         0
         0         0         0         0         0         0         0         0
         0         0         0         0         0         0         0         0
         0         0         0         0         0         0         0         0
         0         0         0         0         0         0         0         0
         0         0         0         0         0         0         0         0
         0         0         0         0         0         0         0         0
         0         0         0         0         0         0         0         0
         0         0         0         0         0         0         0         0
         0         0         0         0         0         0         0         0
         0         0         0         0         0         0         0         0
         0         0         0         0         0         0         0         0
         0         0         0         0         0         0         0         0
         0         0         0         0         0         0         0         0
         0         0         0         0         0         0         0         0
         0         0         0         0         0         0         0         0
         0         0         0         0         0         0         0         0
         0         0         0         0         0         0         0         0
         0         0         0         0         0         0         0         0
         0         0         0         0         0         0         0         0
         0         0         0         0         0         0         0         0
         0         0         0         0         0         0         0         0
         0         0         0         0         0         0         0         0
         0         0         0         0         0         0         0         0
         0         0         0         0         0         0         0         0
         0         0         0         0         0         0         0         0
         0         0         0         0         0         0         0         0
         0         0         0         0         0         0         0         0
         0         0         0         0         0         0         0         0
         0         0         0         0         0         0         0         0
         0         0         0         0         0         0         0         0
         0         0         0         0         0         0         0         0
         0         0         0         0         0         0         0         0
         0         0         0         0         0         0         0         0
         0         0         0         0         0         0         0         0
         0         0         0         0         0         0         0         0
         0         0         0         0         0         0         0         0
         0         0         0         0         0         0         0         0
         0         0         0         0         0         0         0         0
         0         0         0         0         0         0         0         0
         0         0         0         0         0         0         0         0
         0         0         0         0         0         0         0         0
         0         0         0         0         0         0         0         0
         0         0         0         0         0         0         0         0
         0         0         0         0         0         0         0         0
         0         0         0         0         0         0         0         0
         0         0         0         0         0         0         0         0
         0         0         0         0         0         0         0         0
         0         0         0         0         0         0         0         0
         0         0         0         0         0         0         0         0
         0         0         0         0         0         0         0         0
         0         0         0         0         0         0         0         0
         0         0         0         0         0         0         0         0
         0         0         0         0         0         0         0         0
         0         0         0         0         0         0         0         0
         0         0         0         0         0         0         0         0
         0         0         0         0         0         0         0         0
         0         0         0         0         0         0         0         0
         0         0         0         0         0         0         0         0
         0         0         0         0         0         0         0         0
         0         0         0         0         0         0         0         0
         0         0         0         0         0         0
     22254     22253     22255         0         1
     22257     22256     22258         0         1
     22260     22259     22261         0         1
     22263     22262     22264         0         1
     22266     22265     22267         0         1
     22269     22268     22270         0         1
     22272     22271     22273         0         1
     22275     22274     22276         0         1
     22278     22277     22279         0         1
     22281     22280     22282         0         1
     22284     22283     22285         0         1
     22287     22286     22288         0         1
     22290     22289     22291         0         1
     22293     22292     22294         0         1
     22296     22295     22297         0         1
     22299     22298     22300         0         1
     22302     22301     22303         0         1
     22305     22304     22306         0         1
     22308     22307     22309         0         1
     22311     22310     22312         0         1
     22314     22313     22315         0         1
     22317     22316     22318         0         1
     22320     22319     22321         0         1
     22323     22322     22324         0         1
     22326     22325     22327         0         1
     22329     22328     22330         0         1
     22332     22331     22333         0         1
     22335     22334     22336         0         1
     22338     22337     22339         0         1
     22341     22340     22342         0         1
     22344     22343     22345         0         1
     22347     22346     22348         0         1
     22350     22349     22351         0         1
     22353     22352     22354         0         1
     22356     22355     22357         0         1
     22359     22358     22360         0         1
     22362     22361     22363         0         1
     22365     22364     22366         0         1
     22368     22367     22369         0         1
     22371     22370     22372         0         1
     22374     22373     22375         0         1
     22377     22376     22378         0         1
     22380     22379     22381         0         1
     22383     22382     22384         0         1
     22386     22385     22387         0         1
     22389     22388     22390         0         1
     22392     22391     22393         0         1
     22395     22394     22396         0         1
     22398     22397     22399         0         1
     22401     22400     22402         0         1
     22404     22403     22405         0         1
     22407     22406     22408         0         1
     22410     22409     22411         0         1
     22413     22412     22414         0         1
     22416     22415     22417         0         1
     22419     22418     22420         0         1
     22422     22421     22423         0         1
     22425     22424     22426         0         1
     22428     22427     22429         0         1
     22431     22430     22432         0         1
     22434     22433     22435         0         1
     22437     22436     22438         0         1
     22440     22439     22441         0         1
     22443     22442     22444         0         1
     22446     22445     22447         0         1
     22449     22448     22450         0         1
     22452     22451     22453         0         1
     22455     22454     22456         0         1
     22458     22457     22459         0         1
     22461     22460     22462         0         1
     22464     22463     22465         0         1
     22467     22466     22468         0         1
     22470     22469     22471         0         1
     22473     22472     22474         0         1
     22476     22475     22477         0         1
     22479     22478     22480         0         1
     22482     22481     22483         0         1
     22485     22484     22486         0         1
     22488     22487     22489         0         1
     22491     22490     22492         0         1
     22494     22493     22495         0         1
     22497     22496     22498         0         1
     22500     22499     22501         0         1
     22503     22502     22504         0         1
     22506     22505     22507         0         1
     22509     22508     22510         0         1
     22512     22511     22513         0         1
     22515     22514     22516         0         1
     22518     22517     22519         0         1
     22521     22520     22522         0         1
     22524     22523     22525         0         1
     22527     22526     22528         0         1
     22530     22529     22531         0         1
     22533     22532     22534         0         1
     22536     22535     22537         0         1
     22539     22538     22540         0         1
     22542     22541     22543         0         1
     22545     22544     22546         0         1
     22548     22547     22549         0         1
     22551     22550     22552         0         1
     22554     22553     22555         0         1
     22557     22556     22558         0         1
     22560     22559     22561         0         1
     22563     22562     22564         0         1
     22566     22565     22567         0         1
     22569     22568     22570         0         1
