* GENERATED BY CHARMM-GUI (HTTP://WWW.CHARMM-GUI.ORG) V3.7 ON OCT, 22. 2024. JOB
* GENERATES LIPID PACKING USING BIG SPHERES
*  DATE:    10/22/24     11:13:22      CREATED BY USER: apache
*
       192  EXT
         1         1  CHL1      POLO           -4.0841226411      -13.8579854430       11.9539675064  HEAD      1               0.0000000000
         2         2  CHL1      POLO           -4.9800524106        9.9890348587       12.0839306519  HEAD      2               0.0000000000
         3         3  CHL1      POLO          -18.1700737581        2.6400701964       12.1230777583  HEAD      3               0.0000000000
         4         4  CHL1      POLO           -4.3520382844        2.1541868090       12.0431918340  HEAD      4               0.0000000000
         5         5  CHL1      POLO          -34.5410786947       17.9105683159       12.0422993976  HEAD      5               0.0000000000
         6         6  CHL1      POLO          -20.3776092482       10.1923836733       11.9323318829  HEAD      6               0.0000000000
         7         7  CHL1      POLO           -4.7000556466      -30.2893374678       12.1326444754  HEAD      7               0.0000000000
         8         8  CHL1      POLO           -5.6155955495       25.7063382537       12.0485452464  HEAD      8               0.0000000000
         9         9  CHL1      POLO           -4.0037022555       -5.7305470219       11.9859929135  HEAD      9               0.0000000000
        10        10  CHL1      POLO          -24.4853683190      -33.1847357180       12.0402804931  HEAD      10              0.0000000000
        11        11  CHL1      POLO          -12.7371298295       22.1116985654       11.8985371657  HEAD      11              0.0000000000
        12        12  CHL1      POLO          -10.9834050525       -1.6019695603       11.9588965097  HEAD      12              0.0000000000
        13        13  CHL1      POLO          -24.2910144888      -17.1894633003       11.8498078184  HEAD      13              0.0000000000
        14        14  CHL1      POLO            8.3509292103      -31.3884250093       12.0536928925  HEAD      14              0.0000000000
        15        15  CHL1      POLO           28.2941158626      -36.1324882188       11.9210609334  HEAD      15              0.0000000000
        16        16  CHL1      POLO          -30.9560279249      -12.8275453187       11.9988755989  HEAD      16              0.0000000000
        17        17  CHL1      POLO          -27.6215353173        6.1102520629       12.0245125760  HEAD      17              0.0000000000
        18        18  CHL1      POLO          -12.3635460271       30.0378369825       12.0896310799  HEAD      18              0.0000000000
        19        19  CHL1      POLO            8.7501258965      -22.8213238274       11.9632743130  HEAD      19              0.0000000000
        20        20  CHL1      POLO          -24.8088549231       31.8842790658       11.9693707891  HEAD      20              0.0000000000
        21        21  CHL1      POLO          -10.7600876368       -9.6946113932       12.0000389161  HEAD      21              0.0000000000
        22        22  CHL1      POLO            1.6288672521       13.9910742780       11.9669948091  HEAD      22              0.0000000000
        23        23  CHL1      POLO           14.8454584537       29.3877067247       12.0406484924  HEAD      23              0.0000000000
        24        24  CHL1      POLO          -24.6265758674       -0.8584533494       11.9081789543  HEAD      24              0.0000000000
        25        25  CHL1      POLO            9.3398239946      -14.1333243798       11.9788468072  HEAD      25              0.0000000000
        26        26  CHL1      POLO          -34.7278646755       10.0497658682       11.9412104437  HEAD      26              0.0000000000
        27        27  CHL1      POLO          -19.6324089181       26.3091970644       11.9365549017  HEAD      27              0.0000000000
        28        28  CHL1      POLO           -5.9435271860       17.8234604340       12.0115580247  HEAD      28              0.0000000000
        29        29  POPC      POLO           15.1359410656       21.3222881812       12.0369057141  HEAD      29              0.0000000000
        30        30  POPC      POLO          -17.7313270999      -29.5772294607       12.1201474834  HEAD      30              0.0000000000
        31        31  SLPC      POLO           35.5926539029       -8.2643158130       11.8478239153  HEAD      31              0.0000000000
        32        32  SLPC      POLO           30.8666204791        5.5276890167       12.0244923052  HEAD      32              0.0000000000
        33        33  SLPC      POLO           23.3735435279       -6.7021186749       12.1185920762  HEAD      33              0.0000000000
        34        34  SLPC      POLO           21.7674447570      -23.5477374977       12.0830073752  HEAD      34              0.0000000000
        35        35  SLPC      POLO          -18.0555127435       35.2653301705       11.9377302648  HEAD      35              0.0000000000
        36        36  SLPC      POLO          -17.6170991577      -21.4541551873       12.0222039088  HEAD      36              0.0000000000
        37        37  SOPE      POLO            2.5453443161      -18.0516692028       12.0024149450  HEAD      37              0.0000000000
        38        38  SOPE      POLO           35.1531515238      -24.3890097123       11.8823248180  HEAD      38              0.0000000000
        39        39  SOPE      POLO          -11.4871924133        6.2437929421       11.8991867008  HEAD      39              0.0000000000
        40        40  SOPE      POLO            1.2171777869       29.6021313949       12.0015687103  HEAD      40              0.0000000000
        41        41  SOPE      POLO          -12.9834113846       13.9031171879       12.0751877031  HEAD      41              0.0000000000
        42        42  SOPE      POLO            2.4351162730        6.0075551633       11.7927189744  HEAD      42              0.0000000000
        43        43  SAPI      POLO           21.8151709883       25.2071426735       12.0055424460  HEAD      43              0.0000000000
        44        44  SAPI      POLO          -31.0785350939      -20.7695029887       11.9218075490  HEAD      44              0.0000000000
        45        45  SAPC      POLO          -24.4639303826      -25.1108335199       12.0049977452  HEAD      45              0.0000000000
        46        46  SAPC      POLO            9.6743189853        2.1270684463       12.1932352138  HEAD      46              0.0000000000
        47        47  SAPC      POLO           34.9836222889       32.7388096511       11.9815182423  HEAD      47              0.0000000000
        48        48  SAPC      POLO           34.9784210180      -32.4407982105       12.2042108999  HEAD      48              0.0000000000
        49        49  SAPC      POLO           35.0498840703       24.8893241119       12.0040933580  HEAD      49              0.0000000000
        50        50  SAPC      POLO           21.6170624716       33.2095265516       11.9741672974  HEAD      50              0.0000000000
        51        51  SAPE      POLO            8.0143762790       33.5242512857       11.9497108308  HEAD      51              0.0000000000
        52        52  SAPE      POLO           23.7307889061        1.6404950204       11.9509040728  HEAD      52              0.0000000000
        53        53  SAPE      POLO           15.0525177061      -35.4695838792       11.9244358416  HEAD      53              0.0000000000
        54        54  SAPE      POLO            1.1598874207       21.6963179213       11.9239519761  HEAD      54              0.0000000000
        55        55  SAPE      POLO           35.3591393455      -16.4794953553       12.1687543024  HEAD      55              0.0000000000
        56        56  SAPE      POLO          -31.2821462808      -28.8404553321       12.0611438874  HEAD      56              0.0000000000
        57        57  SAPE      POLO          -17.5870085656       -5.3112932471       11.9085046361  HEAD      57              0.0000000000
        58        58  SAPE      POLO          -17.5744751730      -13.3638473806       12.0642450692  HEAD      58              0.0000000000
        59        59  SAPE      POLO           16.2120332694      -10.3397318958       12.0360917147  HEAD      59              0.0000000000
        60        60  SAPE      POLO           -4.2053908292      -22.1681300111       12.0111215509  HEAD      60              0.0000000000
        61        61  SAPE      POLO           30.5433285693       -2.4974727914       12.0802124073  HEAD      61              0.0000000000
        62        62  SAPE      POLO           28.4323422233      -28.0890378488       12.0198553293  HEAD      62              0.0000000000
        63        63  SAPE      POLO           15.5068666639      -19.0081609038       12.0140848947  HEAD      63              0.0000000000
        64        64  SAPE      POLO          -24.1577005247       -9.0032960396       12.0858994440  HEAD      64              0.0000000000
        65        65  SAPS      POLO            2.7575749071       -1.7416268991       12.0680075425  HEAD      65              0.0000000000
        66        66  SAPS      POLO          -31.4221986056       36.3952671489       11.9695148014  HEAD      66              0.0000000000
        67        67  SAPS      POLO            8.4097529003       17.5885478600       12.0064395882  HEAD      67              0.0000000000
        68        68  SAPS      POLO          -19.9385613647       18.2507099612       11.9559293860  HEAD      68              0.0000000000
        69        69  SAPS      POLO          -10.7462000829      -17.8086633057       12.0368069163  HEAD      69              0.0000000000
        70        70  SAPS      POLO           -5.4791286029       33.8748340316       11.9084440924  HEAD      70              0.0000000000
        71        71  SAPS      POLO           15.7909584967       13.3842811717       12.1012479234  HEAD      71              0.0000000000
        72        72  SAPS      POLO           23.8293534998        9.6427064272       12.0148259968  HEAD      72              0.0000000000
        73        73  SAPS      POLO          -11.3799159637      -34.0893792402       11.8411507186  HEAD      73              0.0000000000
        74        74  SAPS      POLO           28.3521629742       29.0038187004       11.8894729687  HEAD      74              0.0000000000
        75        75  OSM       POLO          -11.1651028854      -25.8174266055       11.9373836575  HEAD      75              0.0000000000
        76        76  OSM       POLO          -27.3625405619       14.0715349031       11.9690456715  HEAD      76              0.0000000000
        77        77  OSM       POLO           16.8066719727        5.6125968140       11.8733833781  HEAD      77              0.0000000000
        78        78  OSM       POLO           31.0349410411       13.6074211497       12.0616108359  HEAD      78              0.0000000000
        79        79  OSM       POLO          -26.9139799541       22.1913329522       12.0437724428  HEAD      79              0.0000000000
        80        80  OSM       POLO          -31.5293352283       28.5406590415       11.8920841299  HEAD      80              0.0000000000
        81        81  OSM       POLO           16.7184883693       -2.2946696788       12.1016335730  HEAD      81              0.0000000000
        82        82  OSM       POLO            1.4458398289      -35.1962369281       12.0882560234  HEAD      82              0.0000000000
        83        83  OSM       POLO           29.0152765647      -11.7837097042       11.9721034711  HEAD      83              0.0000000000
        84        84  OSM       POLO           21.7119276666      -31.6045120500       11.9574653775  HEAD      84              0.0000000000
        85        85  OSM       POLO           22.1919599325       17.2942808767       12.0495372046  HEAD      85              0.0000000000
        86        86  OSM       POLO            8.1221665900       25.4129224297       11.9393009860  HEAD      86              0.0000000000
        87        87  OSM       POLO          -34.9737107787        1.7900426560       11.9985915902  HEAD      87              0.0000000000
        88        88  OSM       POLO            2.7655935307       -9.9049449129       12.0574114515  HEAD      88              0.0000000000
        89        89  OSM       POLO           22.2539520650      -15.4318992610       11.8749305022  HEAD      89              0.0000000000
        90        90  OSM       POLO           15.0387176917      -27.3434851087       11.9595162502  HEAD      90              0.0000000000
        91        91  OSM       POLO           28.7950251333       20.9036977015       12.0736137856  HEAD      91              0.0000000000
        92        92  OSM       POLO            9.7251212525       -5.8279178982       12.0009093523  HEAD      92              0.0000000000
        93        93  OSM       POLO           28.6398911326      -19.8642853603       11.9830087789  HEAD      93              0.0000000000
        94        94  OSM       POLO            2.1040603936      -26.5212138221       11.9848911318  HEAD      94              0.0000000000
        95        95  OSM       POLO          -30.8690344539       -4.8247347610       12.0997589104  HEAD      95              0.0000000000
        96        96  OSM       POLO            9.0060095367        9.8263565650       11.9888397310  HEAD      96              0.0000000000
        97        97  CHL1      POLO          -25.6080858778       21.5075417391      -12.0049826479  HEAD      97              0.0000000000
        98        98  CHL1      POLO           13.9760789955       34.3293401302      -11.8981704029  HEAD      98              0.0000000000
        99        99  CHL1      POLO          -26.4629061100      -21.7323245382      -11.9071656249  HEAD      99              0.0000000000
       100       100  CHL1      POLO           32.4848058411      -23.9681335317      -12.0751538031  HEAD      100             0.0000000000
       101       101  CHL1      POLO            5.0580160937       -7.1637573333      -12.0383100212  HEAD      101             0.0000000000
       102       102  CHL1      POLO          -18.6676108188      -23.6246321879      -12.1467779467  HEAD      102             0.0000000000
       103       103  CHL1      POLO           36.4822203069      -12.0571710397      -11.8827716886  HEAD      103             0.0000000000
       104       104  CHL1      POLO           21.7450949648       32.2561093882      -11.9221236383  HEAD      104             0.0000000000
       105       105  CHL1      POLO           28.2560069580       -9.8663850550      -11.9758035264  HEAD      105             0.0000000000
       106       106  CHL1      POLO            7.6672034076        6.8235931489      -11.9841458537  HEAD      106             0.0000000000
       107       107  CHL1      POLO          -22.3434183530       35.8437674898      -12.0731991817  HEAD      107             0.0000000000
       108       108  CHL1      POLO           23.2422196606        4.3637560233      -12.0088760291  HEAD      108             0.0000000000
       109       109  CHL1      POLO            8.3424795729       28.4237961289      -11.9819233834  HEAD      109             0.0000000000
       110       110  CHL1      POLO            2.6098790360        0.5592285817      -11.9495646122  HEAD      110             0.0000000000
       111       111  CHL1      POLO          -14.7178681207       33.7725949433      -12.0517482304  HEAD      111             0.0000000000
       112       112  CHL1      POLO           35.9301857903       34.8871248589      -11.9607477469  HEAD      112             0.0000000000
       113       113  CHL1      POLO           34.1512962162       -4.7141820318      -11.9812581756  HEAD      113             0.0000000000
       114       114  CHL1      POLO          -10.1483775888       17.9916411731      -12.0165918200  HEAD      114             0.0000000000
       115       115  CHL1      POLO            4.3997872791      -29.0018883934      -11.9758808400  HEAD      115             0.0000000000
       116       116  CHL1      POLO          -30.1463685484      -34.9687813317      -12.0766126187  HEAD      116             0.0000000000
       117       117  CHL1      POLO           22.5854427245      -15.2740286612      -11.8837125932  HEAD      117             0.0000000000
       118       118  CHL1      POLO            5.1874298066       14.7027601563      -11.9981998450  HEAD      118             0.0000000000
       119       119  CHL1      POLO            9.9201066432      -23.1766854516      -12.0230220019  HEAD      119             0.0000000000
       120       120  CHL1      POLO          -24.4264353650      -29.3287436233      -11.9628228834  HEAD      120             0.0000000000
       121       121  CHL1      POLO            6.3464492670       36.2297226890      -12.0922265402  HEAD      121             0.0000000000
       122       122  CHL1      POLO           28.7616213633        9.8040487905      -11.9606622591  HEAD      122             0.0000000000
       123       123  CHL1      POLO           15.3142771696      -17.1933833747      -12.0972702738  HEAD      123             0.0000000000
       124       124  CHL1      POLO           -2.4941906524       16.2254036741      -11.9381236693  HEAD      124             0.0000000000
       125       125  POPC      POLO           16.1229801378       26.5599434822      -11.9664227855  HEAD      125             0.0000000000
       126       126  POPC      POLO           23.8884752780       24.6133033936      -12.2321617100  HEAD      126             0.0000000000
       127       127  SLPC      POLO          -20.9513561183      -15.8956966376      -11.8914728564  HEAD      127             0.0000000000
       128       128  SLPC      POLO          -12.6639486128       25.7899032165      -12.0937092907  HEAD      128             0.0000000000
       129       129  SLPC      POLO          -17.7467834481       -2.1930376018      -12.0032918897  HEAD      129             0.0000000000
       130       130  SLPC      POLO           -7.8277607346      -11.7060065646      -11.9989059363  HEAD      130             0.0000000000
       131       131  SLPC      POLO          -36.0682214280        8.1361022242      -12.0317972547  HEAD      131             0.0000000000
       132       132  SLPC      POLO           31.8650649526       22.2796012124      -11.8957262344  HEAD      132             0.0000000000
       133       133  SOPE      POLO           26.3338241706      -29.2537272710      -12.1217524361  HEAD      133             0.0000000000
       134       134  SOPE      POLO           12.8588683965       13.1804937045      -11.8997534158  HEAD      134             0.0000000000
       135       135  SOPE      POLO          -12.6082931500        3.9559070949      -12.0015452499  HEAD      135             0.0000000000
       136       136  SOPE      POLO           17.6402831991      -25.0963823697      -12.0796142201  HEAD      136             0.0000000000
       137       137  SOPE      POLO          -34.1947261582      -19.6266483452      -11.9254045852  HEAD      137             0.0000000000
       138       138  SOPE      POLO           -0.0094549965        8.4258232741      -12.0613855845  HEAD      138             0.0000000000
       139       139  SAPI      POLO           10.2291695370       -0.9576534013      -11.9669538835  HEAD      139             0.0000000000
       140       140  SAPI      POLO          -28.7239871433      -14.1316342321      -11.9683154524  HEAD      140             0.0000000000
       141       141  SAPC      POLO           34.1915153861      -31.0351148251      -11.9608480797  HEAD      141             0.0000000000
       142       142  SAPC      POLO          -30.8769508379       -6.4106591352      -11.8864319735  HEAD      142             0.0000000000
       143       143  SAPC      POLO            7.6251804634      -15.3621084904      -12.0365969583  HEAD      143             0.0000000000
       144       144  SAPC      POLO          -13.1952655524      -17.7814226526      -11.9776074687  HEAD      144             0.0000000000
       145       145  SAPC      POLO          -20.3025598256       27.9091928537      -11.8934133766  HEAD      145             0.0000000000
       146       146  SAPC      POLO           12.7304405586       -8.9804879337      -12.1274764949  HEAD      146             0.0000000000
       147       147  SAPE      POLO           -7.1049477506       31.8750276831      -12.2129218067  HEAD      147             0.0000000000
       148       148  SAPE      POLO          -30.6257896742       13.8611584367      -12.0315580948  HEAD      148             0.0000000000
       149       149  SAPE      POLO           26.2128725978       17.0755058139      -12.0573271771  HEAD      149             0.0000000000
       150       150  SAPE      POLO           -4.8982949438       24.3250307247      -11.8767004365  HEAD      150             0.0000000000
       151       151  SAPE      POLO            0.7124697512       30.3014187626      -11.9640482724  HEAD      151             0.0000000000
       152       152  SAPE      POLO           29.8107085594       29.5575971269      -12.1254165238  HEAD      152             0.0000000000
       153       153  SAPE      POLO           15.3868667637        5.8068711865      -11.9036387032  HEAD      153             0.0000000000
       154       154  SAPE      POLO          -16.6152423213      -31.4239862378      -11.9071341706  HEAD      154             0.0000000000
       155       155  SAPE      POLO          -10.9548623007      -25.6647494480      -12.1312980388  HEAD      155             0.0000000000
       156       156  SAPE      POLO          -33.2652863716       20.7821266838      -12.1028325594  HEAD      156             0.0000000000
       157       157  SAPE      POLO           20.2790324000       -8.3308789115      -11.9014371374  HEAD      157             0.0000000000
       158       158  SAPE      POLO           19.6347447933      -33.1604379361      -12.0805001303  HEAD      158             0.0000000000
       159       159  SAPE      POLO           12.1338549392      -30.9133746648      -12.0967674077  HEAD      159             0.0000000000
       160       160  SAPE      POLO           34.3057482683       15.1509660446      -12.0753311511  HEAD      160             0.0000000000
       161       161  SAPS      POLO           20.6664534608       11.6391574739      -11.9606670228  HEAD      161             0.0000000000
       162       162  SAPS      POLO          -17.7930828602       19.8175279719      -12.1306906135  HEAD      162             0.0000000000
       163       163  SAPS      POLO           -2.5232206989       -5.5370010389      -11.9885947742  HEAD      163             0.0000000000
       164       164  SAPS      POLO           -1.3465745984      -35.0416780971      -12.0322091461  HEAD      164             0.0000000000
       165       165  SAPS      POLO           -9.0382749170      -33.3951919450      -11.7567685481  HEAD      165             0.0000000000
       166       166  SAPS      POLO           10.5410752438       20.7891167834      -12.0572141592  HEAD      166             0.0000000000
       167       167  SAPS      POLO           31.4635716496        2.5379612938      -12.0965794505  HEAD      167             0.0000000000
       168       168  SAPS      POLO           17.8471571629       -1.3296764384      -12.0529957534  HEAD      168             0.0000000000
       169       169  SAPS      POLO          -10.1127894996       -3.7717138823      -11.9448953952  HEAD      169             0.0000000000
       170       170  SAPS      POLO           -5.5824460396      -19.4717587320      -11.9568303317  HEAD      170             0.0000000000
       171       171  OSM       POLO          -25.3793075696       -0.5190449754      -11.9473234982  HEAD      171             0.0000000000
       172       172  OSM       POLO           18.2520880132       19.0043553987      -11.9455994388  HEAD      172             0.0000000000
       173       173  OSM       POLO          -28.0038022323        6.7657344804      -12.0536755882  HEAD      173             0.0000000000
       174       174  OSM       POLO          -35.4567671187       27.7324020227      -12.0212558567  HEAD      174             0.0000000000
       175       175  OSM       POLO          -15.2493422998       12.0012757501      -11.8189247880  HEAD      175             0.0000000000
       176       176  OSM       POLO            2.1673218368      -21.1681675827      -12.1015263836  HEAD      176             0.0000000000
       177       177  OSM       POLO           28.1652914902      -36.3446875586      -11.9039704748  HEAD      177             0.0000000000
       178       178  OSM       POLO           -3.3409281205      -27.2341460627      -11.9172541238  HEAD      178             0.0000000000
       179       179  OSM       POLO           -0.1143361449      -13.2580282193      -12.0171947549  HEAD      179             0.0000000000
       180       180  OSM       POLO            2.6564404941       22.4616823202      -12.0423018769  HEAD      180             0.0000000000
       181       181  OSM       POLO          -33.3560717735        0.9951636128      -12.0421195994  HEAD      181             0.0000000000
       182       182  OSM       POLO           24.7757118671      -22.1682914999      -12.0092190630  HEAD      182             0.0000000000
       183       183  OSM       POLO           -5.0055948547        2.3462845368      -12.0194910016  HEAD      183             0.0000000000
       184       184  OSM       POLO           30.6207681604      -16.8557676585      -11.8289279082  HEAD      184             0.0000000000
       185       185  OSM       POLO          -15.5478162054       -9.8788691521      -12.0250323245  HEAD      185             0.0000000000
       186       186  OSM       POLO           -7.5809550794       10.1590476493      -12.1101490627  HEAD      186             0.0000000000
       187       187  OSM       POLO          -32.1686546862      -27.0797106551      -11.9618140815  HEAD      187             0.0000000000
       188       188  OSM       POLO          -23.1285092945       -8.2441397120      -12.0934085101  HEAD      188             0.0000000000
       189       189  OSM       POLO          -20.1278559991        5.7981423658      -11.8612632805  HEAD      189             0.0000000000
       190       190  OSM       POLO          -22.9870804588       13.3637691356      -12.1473409824  HEAD      190             0.0000000000
       191       191  OSM       POLO          -27.9691812158       29.8746117906      -12.0208823521  HEAD      191             0.0000000000
       192       192  OSM       POLO           25.9062446552       -2.6863598279      -11.9591082032  HEAD      192             0.0000000000
