;;
;; Generated by CHARMM-GUI (http://www.charmm-gui.org) v1.7
;;
;; psf2itp_mol.py
;;
;; Correspondance:
;; jul316@lehigh.edu or wonpil@lehigh.edu
;;
;; GROMACS topology file for LIG
;;


[ moleculetype ]
; name	nrexcl
LIG	     3

[ atoms ]
; nr	type	resnr	residu	atom	cgnr	charge	mass
     1      SG311      1      LIG     S1      1     -0.184    32.0600   ; qtot -0.184
     2      SG311      1      LIG     S2      2     -0.165    32.0600   ; qtot -0.349
     3     SG2R50      1      LIG     S3      3      0.000    32.0600   ; qtot -0.349
     4      OG301      1      LIG     O1      4     -0.348    15.9994   ; qtot -0.697
     5      OG2D1      1      LIG     O2      5     -0.469    15.9994   ; qtot -1.166
     6      OG311      1      LIG     O3      6     -0.671    15.9994   ; qtot -1.837
     7      OG2D1      1      LIG     O4      7     -0.532    15.9994   ; qtot -2.369
     8      OG2D1      1      LIG     O5      8     -0.461    15.9994   ; qtot -2.830
     9     NG2R43      1      LIG     N1      9     -0.125    14.0070   ; qtot -2.955
    10      NG2S1      1      LIG     N2     10     -0.554    14.0070   ; qtot -3.509
    11     NG2R51      1      LIG     N3     11      0.247    14.0070   ; qtot -3.262
    12     NG2R50      1      LIG     N4     12     -0.583    14.0070   ; qtot -3.845
    13     NG2R50      1      LIG     N5     13     -0.321    14.0070   ; qtot -4.166
    14     NG2R50      1      LIG     N6     14     -0.093    14.0070   ; qtot -4.259
    15     CG3C41      1      LIG     C1     15      0.612    12.0110   ; qtot -3.647
    16     CG3RC1      1      LIG     C2     16     -0.049    12.0110   ; qtot -3.696
    17     CG2R53      1      LIG     C3     17      0.254    12.0110   ; qtot -3.442
    18     CG2D1O      1      LIG     C4     18      0.381    12.0110   ; qtot -3.061
    19     CG2DC1      1      LIG     C5     19      0.107    12.0110   ; qtot -2.954
    20      CG321      1      LIG     C6     20     -0.079    12.0110   ; qtot -3.033
    21      CG321      1      LIG     C7     21     -0.080    12.0110   ; qtot -3.113
    22      CG321      1      LIG     C8     22      0.002    12.0110   ; qtot -3.111
    23      CG2O1      1      LIG     C9     23      0.539    12.0110   ; qtot -2.572
    24      CG2O2      1      LIG    C10     24      0.393    12.0110   ; qtot -2.179
    25      CG321      1      LIG    C11     25     -0.095    12.0110   ; qtot -2.274
    26      CG331      1      LIG    C12     26     -0.272    12.0110   ; qtot -2.546
    27     CG2R51      1      LIG    C13     27      0.076    12.0110   ; qtot -2.470
    28     CG2R53      1      LIG    C14     28      0.670    12.0110   ; qtot -1.800
    29     CG2R51      1      LIG    C15     29     -0.204    12.0110   ; qtot -2.004
    30     CG2R51      1      LIG    C16     30     -0.220    12.0110   ; qtot -2.224
    31     CG2R51      1      LIG    C17     31     -0.247    12.0110   ; qtot -2.471
    32      CG331      1      LIG    C18     32     -0.180    12.0110   ; qtot -2.651
    33       HGA1      1      LIG     H1     33      0.090     1.0080   ; qtot -2.561
    34       HGP1      1      LIG     H2     34      0.316     1.0080   ; qtot -2.245
    35       HGA2      1      LIG     H3     35      0.090     1.0080   ; qtot -2.155
    36       HGA2      1      LIG     H4     36      0.090     1.0080   ; qtot -2.065
    37       HGA2      1      LIG     H5     37      0.090     1.0080   ; qtot -1.975
    38       HGA2      1      LIG     H6     38      0.090     1.0080   ; qtot -1.885
    39       HGA2      1      LIG     H7     39      0.090     1.0080   ; qtot -1.795
    40       HGA2      1      LIG     H8     40      0.090     1.0080   ; qtot -1.705
    41       HGA2      1      LIG     H9     41      0.090     1.0080   ; qtot -1.615
    42       HGA2      1      LIG    H10     42      0.090     1.0080   ; qtot -1.525
    43       HGA3      1      LIG    H11     43      0.090     1.0080   ; qtot -1.435
    44       HGA3      1      LIG    H12     44      0.090     1.0080   ; qtot -1.345
    45       HGA3      1      LIG    H13     45      0.090     1.0080   ; qtot -1.255
    46       HGP1      1      LIG    H14     46      0.439     1.0080   ; qtot -0.816
    47      HGR51      1      LIG    H15     47      0.173     1.0080   ; qtot -0.643
    48      HGR51      1      LIG    H16     48      0.187     1.0080   ; qtot -0.456
    49      HGR52      1      LIG    H17     49      0.186     1.0080   ; qtot -0.270
    50       HGA3      1      LIG    H18     50      0.090     1.0080   ; qtot -0.180
    51       HGA3      1      LIG    H19     51      0.090     1.0080   ; qtot -0.090
    52       HGA3      1      LIG    H20     52      0.090     1.0080   ; qtot  0.000

[ bonds ]
; ai	aj	funct	b0	Kb
    1    16     1
    1    20     1
    2    21     1
    2    28     1
    3    27     1
    3    31     1
    4    15     1
    4    22     1
    5    17     1
    6    24     1
    6    46     1
    7    23     1
    8    24     1
    9    16     1
    9    17     1
    9    18     1
   10    15     1
   10    23     1
   10    34     1
   11    13     1
   11    28     1
   11    32     1
   12    14     1
   12    28     1
   13    14     1
   15    16     1
   15    17     1
   16    33     1
   18    19     1
   18    24     1
   19    20     1
   19    21     1
   20    35     1
   20    36     1
   21    37     1
   21    38     1
   22    26     1
   22    39     1
   22    40     1
   23    25     1
   25    27     1
   25    41     1
   25    42     1
   26    43     1
   26    44     1
   26    45     1
   27    29     1
   29    30     1
   29    47     1
   30    31     1
   30    48     1
   31    49     1
   32    50     1
   32    51     1
   32    52     1

[ pairs ]
; ai	aj	funct	c6	c12
    1     4     1 
    1    10     1 
    1    17     1 
    1    18     1 
    1    21     1 
    2    13     1 
    2    14     1 
    2    18     1 
    2    20     1 
    2    32     1 
    3    23     1 
    3    41     1 
    3    42     1 
    3    47     1 
    3    48     1 
    4     5     1 
    4     9     1 
    4    23     1 
    4    33     1 
    4    34     1 
    4    43     1 
    4    44     1 
    4    45     1 
    5    10     1 
    5    16     1 
    5    18     1 
    6     9     1 
    6    19     1 
    7    15     1 
    7    27     1 
    7    34     1 
    7    41     1 
    7    42     1 
    8     9     1 
    8    19     1 
    8    46     1 
    9    10     1 
    9    16     1 
    9    17     1 
    9    20     1 
    9    21     1 
   10    22     1 
   10    27     1 
   10    33     1 
   10    41     1 
   10    42     1 
   11    21     1 
   12    21     1 
   12    32     1 
   13    50     1 
   13    51     1 
   13    52     1 
   14    32     1 
   15    16     1 
   15    17     1 
   15    18     1 
   15    20     1 
   15    25     1 
   15    26     1 
   15    39     1 
   15    40     1 
   16    19     1 
   16    22     1 
   16    23     1 
   16    24     1 
   16    34     1 
   16    35     1 
   16    36     1 
   17    19     1 
   17    22     1 
   17    23     1 
   17    24     1 
   17    33     1 
   17    34     1 
   18    33     1 
   18    35     1 
   18    36     1 
   18    37     1 
   18    38     1 
   18    46     1 
   19    28     1 
   20    24     1 
   20    33     1 
   20    37     1 
   20    38     1 
   21    24     1 
   21    35     1 
   21    36     1 
   23    29     1 
   25    30     1 
   25    31     1 
   25    34     1 
   25    47     1 
   27    48     1 
   27    49     1 
   28    37     1 
   28    38     1 
   28    50     1 
   28    51     1 
   28    52     1 
   29    41     1 
   29    42     1 
   29    49     1 
   31    47     1 
   39    43     1 
   39    44     1 
   39    45     1 
   40    43     1 
   40    44     1 
   40    45     1 
   47    48     1 
   48    49     1 

[ angles ] 
; ai	aj	ak	funct	th0	cth	S0	Kub
   16     1    20     5
   21     2    28     5
   27     3    31     5
   15     4    22     5
   24     6    46     5
   16     9    17     5
   16     9    18     5
   17     9    18     5
   15    10    23     5
   15    10    34     5
   23    10    34     5
   13    11    28     5
   13    11    32     5
   28    11    32     5
   14    12    28     5
   11    13    14     5
   12    14    13     5
    4    15    10     5
    4    15    16     5
    4    15    17     5
   10    15    16     5
   10    15    17     5
   16    15    17     5
    1    16     9     5
    1    16    15     5
    1    16    33     5
    9    16    15     5
    9    16    33     5
   15    16    33     5
    5    17     9     5
    5    17    15     5
    9    17    15     5
    9    18    19     5
    9    18    24     5
   19    18    24     5
   18    19    20     5
   18    19    21     5
   20    19    21     5
    1    20    19     5
    1    20    35     5
    1    20    36     5
   19    20    35     5
   19    20    36     5
   35    20    36     5
    2    21    19     5
    2    21    37     5
    2    21    38     5
   19    21    37     5
   19    21    38     5
   37    21    38     5
    4    22    26     5
    4    22    39     5
    4    22    40     5
   26    22    39     5
   26    22    40     5
   39    22    40     5
    7    23    10     5
    7    23    25     5
   10    23    25     5
    6    24     8     5
    6    24    18     5
    8    24    18     5
   23    25    27     5
   23    25    41     5
   23    25    42     5
   27    25    41     5
   27    25    42     5
   41    25    42     5
   22    26    43     5
   22    26    44     5
   22    26    45     5
   43    26    44     5
   43    26    45     5
   44    26    45     5
    3    27    25     5
    3    27    29     5
   25    27    29     5
    2    28    11     5
    2    28    12     5
   11    28    12     5
   27    29    30     5
   27    29    47     5
   30    29    47     5
   29    30    31     5
   29    30    48     5
   31    30    48     5
    3    31    30     5
    3    31    49     5
   30    31    49     5
   11    32    50     5
   11    32    51     5
   11    32    52     5
   50    32    51     5
   50    32    52     5
   51    32    52     5

[ dihedrals ]
; ai	aj	ak	al	funct	phi0	cp	mult
   20     1    16    33     9
   16     1    20    19     9
   16     1    20    35     9
   16     1    20    36     9
   28     2    21    37     9
   28     2    21    38     9
   27     3    31    30     9
   27     3    31    49     9
   15     4    22    26     9
   15     4    22    39     9
   15     4    22    40     9
   17     9    16    33     9
   18     9    16    33     9
   16     9    18    19     9
   16     9    18    24     9
   17     9    18    19     9
   17     9    18    24     9
   15    10    23    25     9
   13    11    32    50     9
   13    11    32    51     9
   13    11    32    52     9
   28    11    32    50     9
   28    11    32    51     9
   28    11    32    52     9
   14    13    11    28     9
   14    13    11    32     9
   11    13    14    12     9
   13    14    12    28     9
   10    15     4    22     9
   16    15     4    22     9
   17    15     4    22     9
    4    15    10    23     9
    4    15    10    34     9
   16    15    10    23     9
   16    15    10    34     9
   17    15    10    23     9
   17    15    10    34     9
    4    15    16     9     9
    4    15    16    33     9
   10    15    16    33     9
   17    15    16    33     9
    4    15    17     5     9
    4    15    17     9     9
    9    16     1    20     9
   15    16     1    20     9
    1    16     9    17     9
    1    16     9    18     9
   15    16     9    17     9
   15    16     9    18     9
    1    16    15     4     9
    1    16    15    10     9
    1    16    15    17     9
    9    16    15    10     9
    9    16    15    17     9
    5    17     9    16     9
    5    17     9    18     9
   15    17     9    16     9
   15    17     9    18     9
    5    17    15    10     9
    5    17    15    16     9
    9    17    15    10     9
    9    17    15    16     9
    9    18    19    20     9
    9    18    19    21     9
   20    19    18    24     9
   21    19    18    24     9
   18    19    20    35     9
   18    19    20    36     9
   21    19    20    35     9
   21    19    20    36     9
   18    19    21    37     9
   18    19    21    38     9
   20    19    21    37     9
   20    19    21    38     9
    1    20    19    18     9
    1    20    19    21     9
   19    21     2    28     9
    2    21    19    18     9
    2    21    19    20     9
    4    22    26    43     9
    4    22    26    44     9
    4    22    26    45     9
   39    22    26    43     9
   39    22    26    44     9
   39    22    26    45     9
   40    22    26    43     9
   40    22    26    44     9
   40    22    26    45     9
    7    23    10    15     9
    7    23    10    34     9
   25    23    10    34     9
    7    23    25    27     9
    7    23    25    41     9
    7    23    25    42     9
   10    23    25    27     9
   10    23    25    41     9
   10    23    25    42     9
    8    24     6    46     9
   18    24     6    46     9
    6    24    18     9     9
    6    24    18    19     9
    8    24    18     9     9
    8    24    18    19     9
   23    25    27    29     9
   25    27     3    31     9
   29    27     3    31     9
    3    27    25    23     9
    3    27    25    41     9
    3    27    25    42     9
   29    27    25    41     9
   29    27    25    42     9
    3    27    29    30     9
    3    27    29    47     9
   25    27    29    30     9
   25    27    29    47     9
   11    28     2    21     9
   12    28     2    21     9
    2    28    11    13     9
    2    28    11    32     9
   12    28    11    13     9
   12    28    11    32     9
    2    28    12    14     9
   11    28    12    14     9
   27    29    30    31     9
   27    29    30    48     9
   47    29    30    48     9
   31    30    29    47     9
   29    30    31    49     9
   48    30    31    49     9
    3    31    30    29     9
    3    31    30    48     9

[ dihedrals ]
; ai	aj	ak	al	funct	q0	cq
   17    15     9     5     2
   18    19    24     9     2
   23    25    10     7     2
   24    18     8     6     2
