PSF EXT CMAP XPLOR

         3 !NTITLE
* GENERATED BY CHARMM-GUI (HTTP://WWW.CHARMM-GUI.ORG) V3.7 ON OCT, 21. 2024. JOB
* GENERATES ION CONFORMATION USING MONTE-CARLO SIMULATION                       
*  DATE:    10/21/24     14: 1: 6      CREATED BY USER: apache                  

        24 !NATOM
         1 IONS     1        SOD      SOD      SOD       1.00000       22.9898           0
         2 IONS     2        SOD      SOD      SOD       1.00000       22.9898           0
         3 IONS     3        SOD      SOD      SOD       1.00000       22.9898           0
         4 IONS     4        SOD      SOD      SOD       1.00000       22.9898           0
         5 IONS     5        SOD      SOD      SOD       1.00000       22.9898           0
         6 IONS     6        SOD      SOD      SOD       1.00000       22.9898           0
         7 IONS     7        SOD      SOD      SOD       1.00000       22.9898           0
         8 IONS     8        SOD      SOD      SOD       1.00000       22.9898           0
         9 IONS     9        SOD      SOD      SOD       1.00000       22.9898           0
        10 IONS     10       SOD      SOD      SOD       1.00000       22.9898           0
        11 IONS     11       SOD      SOD      SOD       1.00000       22.9898           0
        12 IONS     12       SOD      SOD      SOD       1.00000       22.9898           0
        13 IONS     13       SOD      SOD      SOD       1.00000       22.9898           0
        14 IONS     14       SOD      SOD      SOD       1.00000       22.9898           0
        15 IONS     15       SOD      SOD      SOD       1.00000       22.9898           0
        16 IONS     16       SOD      SOD      SOD       1.00000       22.9898           0
        17 IONS     17       SOD      SOD      SOD       1.00000       22.9898           0
        18 IONS     18       CLA      CLA      CLA      -1.00000       35.4500           0
        19 IONS     19       CLA      CLA      CLA      -1.00000       35.4500           0
        20 IONS     20       CLA      CLA      CLA      -1.00000       35.4500           0
        21 IONS     21       CLA      CLA      CLA      -1.00000       35.4500           0
        22 IONS     22       CLA      CLA      CLA      -1.00000       35.4500           0
        23 IONS     23       CLA      CLA      CLA      -1.00000       35.4500           0
        24 IONS     24       CLA      CLA      CLA      -1.00000       35.4500           0

         0 !NBOND: bonds


         0 !NTHETA: angles


         0 !NPHI: dihedrals


         0 !NIMPHI: impropers


         0 !NDON: donors


         0 !NACC: acceptors


         0 !NNB

         0         0         0         0         0         0         0         0
         0         0         0         0         0         0         0         0
         0         0         0         0         0         0         0         0

        24         0 !NGRP NST2
         0         2         0         1         2         0         2         2         0
         3         2         0         4         2         0         5         2         0
         6         2         0         7         2         0         8         2         0
         9         2         0        10         2         0        11         2         0
        12         2         0        13         2         0        14         2         0
        15         2         0        16         2         0        17         2         0
        18         2         0        19         2         0        20         2         0
        21         2         0        22         2         0        23         2         0

         0         0 !NUMLP NUMLPH

         0 !NCRTERM: cross-terms

