* GENERATED BY CHARMM-GUI (HTTP://WWW.CHARMM-GUI.ORG) V3.7 ON OCT, 21. 2024. JOB
* GET A DIFFERENT CONFORMATION FOR LIPIDS PENETRATING PROTEIN / CHOL
*  DATE:    10/21/24     13:56:53      CREATED BY USER: apache
*
       138  EXT
         1         1  TIP3      OH2             9.0863485624        9.0464113171       20.1693950000  TIP3      1               0.0000000000
         2         1  TIP3      H1              8.4434105251        9.4596458815       20.7456850000  TIP3      1               0.0000000000
         3         1  TIP3      H2              9.6571595794        8.5549188270       20.7600250000  TIP3      1               0.0000000000
         4         2  TIP3      OH2             6.0664330575        5.1423114711       20.1186950000  TIP3      2               0.0000000000
         5         2  TIP3      H1              6.9549817020        5.0534191904       20.4633850000  TIP3      2               0.0000000000
         6         2  TIP3      H2              6.1341754603        5.8282786625       19.4545350000  TIP3      2               0.0000000000
         7         3  TIP3      OH2            14.0218230929       -0.4542183873       20.0963700000  TIP3      3               0.0000000000
         8         3  TIP3      H1             13.0743008525       -0.3910683531       20.2166000000  TIP3      3               0.0000000000
         9         3  TIP3      H2             14.2821633023        0.4117845720       19.7825500000  TIP3      3               0.0000000000
        10         4  TIP3      OH2             9.0438494798        0.3734268818       20.9234700000  TIP3      4               0.0000000000
        11         4  TIP3      H1              9.3051953709        1.0064562479       21.5922100000  TIP3      4               0.0000000000
        12         4  TIP3      H2              8.7464132984        0.9097364011       20.1885400000  TIP3      4               0.0000000000
        13         5  TIP3      OH2            10.4919730912       -2.4412654626       19.0215500000  TIP3      5               0.0000000000
        14         5  TIP3      H1              9.8754037118       -2.3910226787       19.7520000000  TIP3      5               0.0000000000
        15         5  TIP3      H2             10.7070938214       -1.5293007072       18.8259200000  TIP3      5               0.0000000000
        16         6  TIP3      OH2            11.3719168559        2.6481612521       20.4254800000  TIP3      6               0.0000000000
        17         6  TIP3      H1             11.5576928608        3.5692387238       20.2429400000  TIP3      6               0.0000000000
        18         6  TIP3      H2             11.5819955595        2.5402226062       21.3530800000  TIP3      6               0.0000000000
        19         7  TIP3      OH2            11.5774318357       -0.5334494580       21.4837000000  TIP3      7               0.0000000000
        20         7  TIP3      H1             11.8301568413        0.1604157301       22.0927200000  TIP3      7               0.0000000000
        21         7  TIP3      H2             10.7289088108       -0.2538604463       21.1400800000  TIP3      7               0.0000000000
        22         8  TIP3      OH2            -6.8255506433        7.6617446238       18.7806200000  TIP3      8               0.0000000000
        23         8  TIP3      H1             -6.7173878915        6.7556097306       19.0695000000  TIP3      8               0.0000000000
        24         8  TIP3      H2             -6.3358268595        7.7120035991       17.9597200000  TIP3      8               0.0000000000
        25         9  TIP3      OH2            -5.4184913624      -14.8672585871       20.5012300000  TIP3      9               0.0000000000
        26         9  TIP3      H1             -5.0515351266      -14.2867237318       21.1679900000  TIP3      9               0.0000000000
        27         9  TIP3      H2             -5.5821336864      -14.2968685050       19.7501500000  TIP3      9               0.0000000000
        28        10  TIP3      OH2            -4.4663484047      -11.1412483749       20.5632400000  TIP3      10              0.0000000000
        29        10  TIP3      H1             -3.8605646350      -11.4098822447       21.2539700000  TIP3      10              0.0000000000
        30        10  TIP3      H2             -4.2481554908      -10.2244033352       20.3958900000  TIP3      10              0.0000000000
        31        11  TIP3      OH2           -12.6761275773       -1.2338304275       20.8472200000  TIP3      11              0.0000000000
        32        11  TIP3      H1            -11.8630238092       -0.9252231712       21.2470300000  TIP3      11              0.0000000000
        33        11  TIP3      H2            -12.5424286892       -2.1739010858       20.7263600000  TIP3      11              0.0000000000
        34        12  TIP3      OH2           -17.0484618272       -0.1312259012       19.1273800000  TIP3      12              0.0000000000
        35        12  TIP3      H1            -16.7326708131       -0.9573201666       19.4935400000  TIP3      12              0.0000000000
        36        12  TIP3      H2            -16.2665862432        0.2847794971       18.7642600000  TIP3      12              0.0000000000
        37        13  TIP3      OH2           -14.9414427367        0.1214201755       21.8068000000  TIP3      13              0.0000000000
        38        13  TIP3      H1            -14.3449895286       -0.5950020897       21.5895000000  TIP3      13              0.0000000000
        39        13  TIP3      H2            -14.8806635080        0.7187666594       21.0613400000  TIP3      13              0.0000000000
        40        14  TIP3      OH2            -1.5393356229      -16.5861898353       20.3711200000  TIP3      14              0.0000000000
        41        14  TIP3      H1             -2.3999123458      -16.3311529682       20.7036800000  TIP3      14              0.0000000000
        42        14  TIP3      H2             -0.9199770779      -16.0708101528       20.8878600000  TIP3      14              0.0000000000
        43        15  TIP3      OH2           -14.3154731031      -12.7241758255       21.9106000000  TIP3      15              0.0000000000
        44        15  TIP3      H1            -13.7497827770      -12.4455599624       21.1904600000  TIP3      15              0.0000000000
        45        15  TIP3      H2            -14.1614913956      -13.6658822088       21.9862100000  TIP3      15              0.0000000000
        46        16  TIP3      OH2           -25.6334563407       12.3068852030       20.6498850000  TIP3      16              0.0000000000
        47        16  TIP3      H1            -25.0085911751       11.8486435352       20.0879450000  TIP3      16              0.0000000000
        48        16  TIP3      H2            -25.6600043599       11.7869649325       21.4531350000  TIP3      16              0.0000000000
        49        17  TIP3      OH2           -24.5912384646       15.7791712308       19.4652150000  TIP3      17              0.0000000000
        50        17  TIP3      H1            -25.2237465492       16.4932806324       19.3863750000  TIP3      17              0.0000000000
        51        17  TIP3      H2            -24.7538743307       15.4092383395       20.3329250000  TIP3      17              0.0000000000
        52        18  TIP3      OH2            11.6678165384      -27.0246663343       20.7973900000  TIP3      18              0.0000000000
        53        18  TIP3      H1             11.6574397367      -26.8396788564       19.8582900000  TIP3      18              0.0000000000
        54        18  TIP3      H2             11.4008981580      -26.2017702527       21.2070500000  TIP3      18              0.0000000000
        55        19  TIP3      OH2           -17.8985268728      -23.5152621108       20.0427350000  TIP3      19              0.0000000000
        56        19  TIP3      H1            -17.3295605059      -23.6048549199       19.2782150000  TIP3      19              0.0000000000
        57        19  TIP3      H2            -18.0865735808      -22.5780894003       20.0934150000  TIP3      19              0.0000000000
        58        20  TIP3      OH2           -23.0041166739      -26.2855497117       20.7440950000  TIP3      20              0.0000000000
        59        20  TIP3      H1            -23.5060350090      -26.9595336228       21.2024150000  TIP3      20              0.0000000000
        60        20  TIP3      H2            -22.3435967161      -26.0056723274       21.3778150000  TIP3      20              0.0000000000
        61        21  TIP3      OH2           -25.7159344324      -23.7172281709       19.2307750000  TIP3      21              0.0000000000
        62        21  TIP3      H1            -26.1030426799      -23.0638882248       18.6480850000  TIP3      21              0.0000000000
        63        21  TIP3      H2            -24.8676185391      -23.9185152947       18.8357250000  TIP3      21              0.0000000000
        64        22  TIP3      OH2            -3.3183166225       -4.8752307826      -20.0607500000  TIP3      22              0.0000000000
        65        22  TIP3      H1             -3.6682581719       -4.7668436902      -20.9450700000  TIP3      22              0.0000000000
        66        22  TIP3      H2             -2.4099015405       -4.5803100248      -20.1243200000  TIP3      22              0.0000000000
        67        23  TIP3      OH2            -1.2722785078       -8.5091201001      -19.9832100000  TIP3      23              0.0000000000
        68        23  TIP3      H1             -0.5832203349       -7.9368441398      -19.6456800000  TIP3      23              0.0000000000
        69        23  TIP3      H2             -2.0734730580       -8.1914237343      -19.5668200000  TIP3      23              0.0000000000
        70        24  TIP3      OH2             9.4679575846       -2.6105128122      -18.2333700000  TIP3      24              0.0000000000
        71        24  TIP3      H1              9.1680519103       -1.7295223440      -18.4573200000  TIP3      24              0.0000000000
        72        24  TIP3      H2              8.6873249293       -3.1581617165      -18.3166400000  TIP3      24              0.0000000000
        73        25  TIP3      OH2             8.1741164173       -1.1325201377      -21.8678500000  TIP3      25              0.0000000000
        74        25  TIP3      H1              8.1189633106       -0.5945268070      -21.0780700000  TIP3      25              0.0000000000
        75        25  TIP3      H2              9.0403753274       -0.9422047394      -22.2278600000  TIP3      25              0.0000000000
        76        26  TIP3      OH2             9.7046556482        0.9031288707      -20.3395000000  TIP3      26              0.0000000000
        77        26  TIP3      H1             10.1212752985        0.2504097783      -20.9021900000  TIP3      26              0.0000000000
        78        26  TIP3      H2             10.4284728060        1.4424152547      -20.0209100000  TIP3      26              0.0000000000
        79        27  TIP3      OH2             7.8595739300      -14.3466261778      -19.3920150000  TIP3      27              0.0000000000
        80        27  TIP3      H1              7.6470783335      -14.5984054496      -20.2907350000  TIP3      27              0.0000000000
        81        27  TIP3      H2              7.0097103329      -14.2534596822      -18.9615750000  TIP3      27              0.0000000000
        82        28  TIP3      OH2            -6.0854063332       14.1454853737      -20.0653550000  TIP3      28              0.0000000000
        83        28  TIP3      H1             -5.3037649062       13.6471169019      -20.3039150000  TIP3      28              0.0000000000
        84        28  TIP3      H2             -6.6282451155       14.1323617135      -20.8536350000  TIP3      28              0.0000000000
        85        29  TIP3      OH2            -2.4368355323       16.2510696877      -19.7200700000  TIP3      29              0.0000000000
        86        29  TIP3      H1             -2.3042699264       16.7740922726      -20.5107200000  TIP3      29              0.0000000000
        87        29  TIP3      H2             -1.8348720289       16.6287285536      -19.0787900000  TIP3      29              0.0000000000
        88        30  TIP3      OH2             1.9508084941       18.7450025232      -19.8541700000  TIP3      30              0.0000000000
        89        30  TIP3      H1              2.2392262340       19.4961266568      -19.3356700000  TIP3      30              0.0000000000
        90        30  TIP3      H2              1.1729641149       18.4232655246      -19.3984600000  TIP3      30              0.0000000000
        91        31  TIP3      OH2            -1.1788998930       18.1694904789      -21.2072800000  TIP3      31              0.0000000000
        92        31  TIP3      H1             -0.6813596986       18.7473616947      -21.7858600000  TIP3      31              0.0000000000
        93        31  TIP3      H2             -1.2763068793       18.6680854295      -20.3960200000  TIP3      31              0.0000000000
        94        32  TIP3      OH2           -14.7936687799      -17.3684869309      -20.1902500000  TIP3      32              0.0000000000
        95        32  TIP3      H1            -14.3744693019      -16.9462165733      -20.9400500000  TIP3      32              0.0000000000
        96        32  TIP3      H2            -14.5205841798      -16.8453561735      -19.4366000000  TIP3      32              0.0000000000
        97        33  TIP3      OH2           -13.9654665334      -12.4981730985      -18.8639300000  TIP3      33              0.0000000000
        98        33  TIP3      H1            -13.0631596659      -12.6884304415      -19.1205900000  TIP3      33              0.0000000000
        99        33  TIP3      H2            -14.2482708622      -11.8137922308      -19.4704500000  TIP3      33              0.0000000000
       100        34  TIP3      OH2            15.1560712730      -15.7922973528      -20.1705850000  TIP3      34              0.0000000000
       101        34  TIP3      H1             15.8867706312      -15.1779146505      -20.2401250000  TIP3      34              0.0000000000
       102        34  TIP3      H2             14.3756676345      -15.2380364769      -20.1705150000  TIP3      34              0.0000000000
       103        35  TIP3      OH2           -10.5748450517      -20.9379921322      -20.2424050000  TIP3      35              0.0000000000
       104        35  TIP3      H1            -10.2415254613      -20.0413390177      -20.2762950000  TIP3      35              0.0000000000
       105        35  TIP3      H2            -11.1218449419      -21.0203691127      -21.0235750000  TIP3      35              0.0000000000
       106        36  TIP3      OH2            19.7301599983        8.6270013700      -19.5910300000  TIP3      36              0.0000000000
       107        36  TIP3      H1             19.0855700346        8.9442626625      -20.2235600000  TIP3      36              0.0000000000
       108        36  TIP3      H2             20.3622890215        9.3416034551      -19.5136300000  TIP3      36              0.0000000000
       109        37  TIP3      OH2            22.4158355717       13.3121684802      -19.9568400000  TIP3      37              0.0000000000
       110        37  TIP3      H1             22.2982086306       13.3519362427      -20.9059500000  TIP3      37              0.0000000000
       111        37  TIP3      H2             23.0290979487       14.0205786786      -19.7611400000  TIP3      37              0.0000000000
       112        38  TIP3      OH2           -22.5585967793       15.4287795794      -20.5417200000  TIP3      38              0.0000000000
       113        38  TIP3      H1            -23.0500555703       14.8579027450      -19.9511200000  TIP3      38              0.0000000000
       114        38  TIP3      H2            -22.1345207032       14.8300724012      -21.1564900000  TIP3      38              0.0000000000
       115        39  TIP3      OH2           -22.9900016215      -18.3949908968      -19.7277550000  TIP3      39              0.0000000000
       116        39  TIP3      H1            -22.2776327559      -17.8950423198      -19.3292450000  TIP3      39              0.0000000000
       117        39  TIP3      H2            -22.8637026716      -18.2833775890      -20.6699950000  TIP3      39              0.0000000000
       118        40  TIP3      OH2           -20.0063460829      -17.1333667442      -21.3815650000  TIP3      40              0.0000000000
       119        40  TIP3      H1            -20.1489891209      -16.2566172253      -21.7381950000  TIP3      40              0.0000000000
       120        40  TIP3      H2            -20.2559191921      -17.0612429002      -20.4602950000  TIP3      40              0.0000000000
       121        41  TIP3      OH2           -15.0841658147      -21.0809703424      -20.1577900000  TIP3      41              0.0000000000
       122        41  TIP3      H1            -15.2696470201      -21.6878144154      -19.4411500000  TIP3      41              0.0000000000
       123        41  TIP3      H2            -15.6880778629      -20.3517659519      -20.0171600000  TIP3      41              0.0000000000
       124        42  TIP3      OH2           -18.7349373913      -23.8609810737      -19.9359500000  TIP3      42              0.0000000000
       125        42  TIP3      H1            -19.6603863602      -24.0484771262      -19.7790300000  TIP3      42              0.0000000000
       126        42  TIP3      H2            -18.6955919959      -23.6001338064      -20.8560900000  TIP3      42              0.0000000000
       127        43  TIP3      OH2            22.9593985311      -14.6423166565      -20.6887250000  TIP3      43              0.0000000000
       128        43  TIP3      H1             22.2255677040      -14.1966456175      -20.2655250000  TIP3      43              0.0000000000
       129        43  TIP3      H2             22.8196172349      -14.4990468919      -21.6247650000  TIP3      43              0.0000000000
       130        44  TIP3      OH2            26.2684914425      -18.6465017954      -20.0353750000  TIP3      44              0.0000000000
       131        44  TIP3      H1             25.9498713484      -17.7459908201      -19.9738450000  TIP3      44              0.0000000000
       132        44  TIP3      H2             26.6630561949      -18.7025159784      -20.9056750000  TIP3      44              0.0000000000
       133        45  TIP3      OH2            25.1231294869      -15.9272405078      -19.8368550000  TIP3      45              0.0000000000
       134        45  TIP3      H1             25.7535255639      -15.2642558009      -20.1184150000  TIP3      45              0.0000000000
       135        45  TIP3      H2             24.2742011565      -15.5859509769      -20.1180550000  TIP3      45              0.0000000000
       136        46  TIP3      OH2            22.4605420826      -20.0896970526      -19.5179550000  TIP3      46              0.0000000000
       137        46  TIP3      H1             23.2850448786      -20.5540834128      -19.6620250000  TIP3      46              0.0000000000
       138        46  TIP3      H2             22.7239508591      -19.1984094245      -19.2889550000  TIP3      46              0.0000000000
